h07.ulysses.mit.edu 127.0.1
Q-Chem Developer Version! Running on 127.0.1.*
                  Welcome to Q-Chem
     A Quantum Leap Into The Future Of Chemistry


 Q-Chem 5.0, Q-Chem, Inc., Pleasanton, CA (2017)

 Yihan Shao,  Zhengting Gan,  E. Epifanovsky,  A. T. B. Gilbert,  M. Wormit,
 J. Kussmann,  A. W. Lange,  A. Behn,  Jia Deng,  Xintian Feng,  D. Ghosh,
 M. Goldey,  P. R. Horn,  L. D. Jacobson,  I. Kaliman,  T. Kus,  A. Landau,
 Jie Liu,  E. I. Proynov,  R. M. Richard,  R. P. Steele,  E. J. Sundstrom,
 H. L. Woodcock III,  P. M. Zimmerman,  D. Zuev,  B. Albrecht,  E. Alguire,
 S. A. Baeppler,  Z. Benda,  Y. A. Bernard,  E. J. Berquist,  K. B. Bravaya,
 D. Casanova,  Chun-Min Chang,  Yunqing Chen,  A. Chien,  K. D. Closser,
 M. P. Coons,  S. Dasgupta,  M. Diedenhofen,  Hainam Do,  R. G. Edgar,
 Po-Tung Fang,  S. Fatehi,  Qingguo Feng,  Qinghui Ge,  A. Ghysels,
 J. Gomes,  J. Gonthier,  A. Gunina,  M. W. D. Hanson-Heine,
 P. H. P. Harbach,  A. W. Hauser,  J. E. Herr,  E. G. Hohenstein,
 Z. C. Holden,  Kerwin Hui,  T.-C. Jagau,  Hyunjun Ji,  B. Kaduk,
 K. Khistyaev,  Jaehoon Kim,  P. Klunzinger,  K. Koh,  D. Kosenkov,
 T. Kowalczyk,  C. M. Krauter,  A. Kunitsa,  Ka Un Lao,  A. Laurent,
 K. V. Lawler,  Joonho Lee,  D. Lefrancois,  S. Lehtola,  D. S. Levine,
 Yi-Pei Li,  You-Sheng Lin,  Fenglai Liu,  E. Livshits,  A. Luenser,
 P. Manohar,  E. Mansoor,  S. F. Manzer,  Shan-Ping Mao,  Yuezhi Mao,
 N. Mardirossian,  A. V. Marenich,  L. A. Martinez-Martinez,  S. A. Maurer,
 N. J. Mayhall,  S. C. McKenzie,  J.-M. Mewes,  A. F. Morrison,  K. Nanda,
 T. S. Nguyen-Beck,  R. Olivares-Amaya,  J. A. Parkhill,  T. M. Perrine,
 F. Plasser,  S. Prager,  A. Prociuk,  D. R. Rehn,  F. Rob,  M. Schneider,
 N. Sergueev,  S. M. Sharada,  S. Sharma,  D. W. Small,  T. Stauch,
 T. Stein,  Yu-Chuan Su,  A. J. W. Thom,  T. Tsuchimochi,  L. Vogt,
 O. Vydrov,  M. A. Watson,  J. Wenzel,  M. de Wergifosse,  T. A. Wesolowski,
 A. White,  J. Witte,  A. Yamada,  Jun Yang,  K. Yao,  S. Yeganeh,
 S. R. Yost,  Zhi-Qiang You,  A. Zech,  Igor Ying Zhang,  Xing Zhang,
 Yan Zhao,  Ying Zhu,  B. R. Brooks,  G. K. L. Chan,  C. J. Cramer,
 M. S. Gordon,  W. J. Hehre,  A. Klamt,  M. W. Schmidt,  C. D. Sherrill,
 D. G. Truhlar,  A. Aspuru-Guzik,  R. Baer,  A. T. Bell,  N. A. Besley,
 Jeng-Da Chai,  A. Dreuw,  B. D. Dunietz,  T. R. Furlani,  Chao-Ping Hsu,
 Yousung Jung,  Jing Kong,  D. S. Lambrecht,  WanZhen Liang,  C. Ochsenfeld,
 V. A. Rassolov,  L. V. Slipchenko,  J. E. Subotnik,  T. Van Voorhis,
 J. M. Herbert,  A. I. Krylov,  P. M. W. Gill,  M. Head-Gordon

 Contributors to earlier versions of Q-Chem not listed above:
 R. D. Adamson,  B. Austin,  J. Baker,  G. J. O. Beran,  K. Brandhorst,
 S. T. Brown,  E. F. C. Byrd,  A. K. Chakraborty,  C.-L. Cheng,
 Siu Hung Chien,  D. M. Chipman,  D. L. Crittenden,  H. Dachsel,
 R. A. DiStasio Jr.,  R. J. Doerksen,  A. D. Dutoi,  L. Fusti-Molnar,
 W. A. Goddard III,  A. Golubeva-Zadorozhnaya,  S. R. Gwaltney,  G. Hawkins,
 A. Heyden,  S. Hirata,  G. Kedziora,  F. J. Keil,  C. Kelley,  Jihan Kim,
 R. A. King,  R. Z. Khaliullin,  P. P. Korambath,  W. Kurlancheek,
 A. M. Lee,  M. S. Lee,  S. V. Levchenko,  Ching Yeh Lin,  D. Liotard,
 R. C. Lochan,  I. Lotan,  P. E. Maslen,  N. Nair,  D. P. O'Neill,
 D. Neuhauser,  E. Neuscamman,  C. M. Oana,  R. Olson,  B. Peters,
 R. Peverati,  P. A. Pieniazek,  Y. M. Rhee,  J. Ritchie,  M. A. Rohrdanz,
 E. Rosta,  N. J. Russ,  H. F. Schaefer III,  N. E. Schultz,  N. Shenvi,
 A. C. Simmonett,  A. Sodt,  D. Stuck,  K. S. Thanthiriwatte,  V. Vanovschi,
 Tao Wang,  A. Warshel,  C. F. Williams,  Q. Wu,  X. Xu,  W. Zhang

 Please cite Q-Chem as follows:
 Y. Shao et al., Mol. Phys. 113, 184-215 (2015)
 DOI: 10.1080/00268976.2014.952696

 Q-Chem 5.0.1 for Intel X86 EM64T Linux

 Parts of Q-Chem use Armadillo 5.200.1 (Boston Tea Smuggler).
 http://arma.sourceforge.net/

 Q-Chem begins on Fri Jun 22 04:03:30 2018

Host:
0

     Scratch files written to /scratch/kjchen/qchem7136//
Processing $rem in /opt/qchem.20170918/config/preferences.
xc_grid     000075000302
max_scf_cycles  200
geom_opt_max_cycles 200
symmetry    false
sym_ignore  true
cc_symmetry false
Warning: disabling incdft.
Checking the input file for inconsistencies...  ...done.

--------------------------------------------------------------
User input:
--------------------------------------------------------------
$rem
MEM_STATIC                    256
MAX_SCF_CYCLES                500
BASIS                         6-31+g*
THRESH                        14
MEM_TOTAL                     4096
UNRESTRICTED                  true
METHOD                        tpssh
JOBTYPE                       opt
$end

$molecule
0 3
C    -1.58536    2.70107    0.00790
C    -2.17646    1.44499    0.01119
B    -1.47707    0.24588    0.01013
N    -0.22430    2.93781    0.00314
B    -0.10731    4.31540    0.00133
C    -1.40268    4.94267    0.00496
C    -2.32411    3.93621    0.00908
H    -1.56900    6.01289    0.00440
H    -3.40484    4.00766    0.01261
C    -2.10434    -1.04949    0.01356
C    -1.09788    -1.97093    0.01119
C    0.13726    -1.23218    0.00635
H    -3.17455    -1.21581    0.01727
H    -1.16932    -3.05166    0.01255
N    -0.09964    0.12903    0.00571
C    1.39333    -1.82329    0.00284
B    2.59243    -1.12390    -0.00181
N    2.70874    0.25295    -0.00362
C    3.88780    -1.75117    -0.00542
C    4.80923    -0.74471    -0.00954
C    4.07048    0.49043    -0.00838
C    4.66158    1.74651    -0.01170
B    3.96219    2.94562    -0.01066
N    2.58520    3.06207    -0.00623
C    2.34786    4.42368    -0.00688
C    3.58300    5.16243    -0.01174
C    4.58946    4.24099    -0.01411
H    3.65444    6.24316    -0.01311
H    5.65967    4.40731    -0.01783
C    1.09179    5.01479    -0.00334
Cr    1.24280    1.59688    -0.00025
H    1.04631    6.04579    -0.00424
H    5.69257    1.79199    -0.01518
H    1.43881    -2.85429    0.00375
H    -3.20745    1.39951    0.01467
H    5.83595    -0.84892    -0.01284
H    4.08195    -2.76474    -0.00498
$end

--------------------------------------------------------------
 ----------------------------------------------------------------
             Standard Nuclear Orientation (Angstroms)
    I     Atom           X                Y                Z
 ----------------------------------------------------------------
    1      C      -1.5853600000     2.7010700000     0.0079000000
    2      C      -2.1764600000     1.4449900000     0.0111900000
    3      B      -1.4770700000     0.2458800000     0.0101300000
    4      N      -0.2243000000     2.9378100000     0.0031400000
    5      B      -0.1073100000     4.3154000000     0.0013300000
    6      C      -1.4026800000     4.9426700000     0.0049600000
    7      C      -2.3241100000     3.9362100000     0.0090800000
    8      H      -1.5690000000     6.0128900000     0.0044000000
    9      H      -3.4048400000     4.0076600000     0.0126100000
   10      C      -2.1043400000    -1.0494900000     0.0135600000
   11      C      -1.0978800000    -1.9709300000     0.0111900000
   12      C       0.1372600000    -1.2321800000     0.0063500000
   13      H      -3.1745500000    -1.2158100000     0.0172700000
   14      H      -1.1693200000    -3.0516600000     0.0125500000
   15      N      -0.0996400000     0.1290300000     0.0057100000
   16      C       1.3933300000    -1.8232900000     0.0028400000
   17      B       2.5924300000    -1.1239000000    -0.0018100000
   18      N       2.7087400000     0.2529500000    -0.0036200000
   19      C       3.8878000000    -1.7511700000    -0.0054200000
   20      C       4.8092300000    -0.7447100000    -0.0095400000
   21      C       4.0704800000     0.4904300000    -0.0083800000
   22      C       4.6615800000     1.7465100000    -0.0117000000
   23      B       3.9621900000     2.9456200000    -0.0106600000
   24      N       2.5852000000     3.0620700000    -0.0062300000
   25      C       2.3478600000     4.4236800000    -0.0068800000
   26      C       3.5830000000     5.1624300000    -0.0117400000
   27      C       4.5894600000     4.2409900000    -0.0141100000
   28      H       3.6544400000     6.2431600000    -0.0131100000
   29      H       5.6596700000     4.4073100000    -0.0178300000
   30      C       1.0917900000     5.0147900000    -0.0033400000
   31      Cr      1.2428000000     1.5968800000    -0.0002500000
   32      H       1.0463100000     6.0457900000    -0.0042400000
   33      H       5.6925700000     1.7919900000    -0.0151800000
   34      H       1.4388100000    -2.8542900000     0.0037500000
   35      H      -3.2074500000     1.3995100000     0.0146700000
   36      H       5.8359500000    -0.8489200000    -0.0128400000
   37      H       4.0819500000    -2.7647400000    -0.0049800000
 ----------------------------------------------------------------
 Nuclear Repulsion Energy =  2344.4906773928 hartrees
 There are       91 alpha and       89 beta electrons
 Requested basis set is 6-31+G(d)
 There are 152 shells and 516 basis functions

 Total QAlloc Memory Limit   4096 MB
 Mega-Array Size       251 MB
 MEM_STATIC part       256 MB
 A cutoff of  1.0D-14 yielded   9219 shell pairs
 There are    114976 function pairs (    116506 Cartesian)

 -------------------------------------------------------
 OpenMP Integral Computing Module
 Release: version 1.0, May 2013, Q-Chem Inc. Pittsburgh
 -------------------------------------------------------
 Integral Job Info:
 Integral job number is                      11
 Integral operator is                         1
 short-range coefficients                     0
 long-range coefficients              100000000
 Omega coefficients                           0
 if combine SR and LR in K                    0
 Integral screening is                        0
 Integral computing path is                   2
 max size of driver memory is            800000
 size of driver memory is                776718
 size of scratch memory is             15447240
 max col of scratch BK array              10000
 max len of scratch array in speh3          662
 max len of scratch index in speh4           32
 max int batch size is                      520
 min int batch size is                       52
 fixed nKL is                                52
 max L of basis functions is                  3
 order of int derivative is                   0
 number of shells is                        152
 number of basis is                         519
 number of cartesian basis is               519
 number of contracted shell pairs          9219
 number of primitive shell pairs          29852
 maxK2 (contraction) of shell pair           36
 max number of K2 of shell pair               1
 max number of CS2 of shell pair           1329
 max number of PS2 of shell pair           7926
 mem total for path MDJ                  282664
 -------------------------------------------------------
 Smallest overlap matrix eigenvalue = 5.11E-07
 Linear dependence detected in AO basis
 Number of orthogonalized atomic orbitals = 513
 Maximum deviation from orthogonality = 1.617E-10

 Scale SEOQF with 1.000000e-02/1.000000e-02/1.000000e-01

 Standard Electronic Orientation quadrupole field applied
 Nucleus-field energy     =     0.0000000148 hartrees
 Guess from superposition of atomic densities
 Warning:  Energy on first SCF cycle will be non-variational
 An unrestricted hybrid HF-DFT SCF calculation will be
 performed using Pulay DIIS extrapolation
 Exchange:     0.1000 Hartree-Fock + 0.9000 TPSS
 Correlation:  1.0000 TPSS
 Using Euler-Maclaurin-Lebedev (75,302) quadrature formula
 SCF converges when DIIS error is below 1.0E-08
 using 2 threads for integral computing
 -------------------------------------------------------
 OpenMP Integral computing Module
 Release: version 1.0, May 2013, Q-Chem Inc. Pittsburgh
 -------------------------------------------------------
 -------------------------------------------------------
 OpenMP BLAS3 based DFT computing Module
 Release: version 1.0, May 2013, Q-Chem Inc. Pittsburgh
 -------------------------------------------------------
 ---------------------------------------
  Cycle       Energy         DIIS Error
 ---------------------------------------
    1   -1986.7314987011      3.55E-02
    2   -1976.3376778547      8.74E-03
    3   -1931.8152822870      3.72E-02
    4   -1957.7094017598      2.68E-02
    5   -1958.0044348187      2.58E-02
    6   -1960.4812190028      2.50E-02
    7   -1962.3855788505      2.45E-02
    8   -1962.8904633315      2.42E-02
    9   -1962.9846397019      2.42E-02
   10   -1963.3518736930      2.40E-02
   11   -1963.4281922504      2.40E-02
   12   -1963.4124467815      2.40E-02
   13   -1962.8362214574      2.42E-02
   14   -1962.0130402609      2.44E-02
   15   -1961.6793768730      2.45E-02
   16   -1962.1463642015      2.44E-02
   17   -1962.0674554428      2.45E-02
   18   -1830.5455545935      3.68E-02
   19   -1852.7332406356      4.44E-02
   20   -1951.1285533435      2.82E-02
   21   -1924.1178762069      3.24E-02
   22   -1931.9886844375      3.08E-02
   23   -1932.1857941882      3.08E-02
   24   -1926.5290913431      3.32E-02
   25   -1926.5205321492      3.32E-02
   26   -1929.8533663274      3.22E-02
   27   -1932.8486158308      3.07E-02
   28   -1932.9085356224      3.07E-02
   29   -1933.2674996079      3.07E-02
   30   -1933.3734648111      3.06E-02
   31   -1933.3209861671      3.07E-02
   32   -1933.3269401957      3.08E-02
   33   -1934.6897698410      3.27E-02
   34   -1546.6337273812      6.20E-02
   35   -1805.3213938904      5.82E-02
   36   -1701.9835386506      6.48E-02
   37   -1973.0237494600      1.18E-02
   38   -1941.1604545058      3.04E-02
   39   -1965.4381087659      2.25E-02
   40   -1963.9788480174      2.09E-02
   41   -1972.1039124986      1.69E-02
   42   -1974.0209626860      1.43E-02
   43   -1979.1845774741      4.51E-03
   44   -1979.3882749732      3.73E-03
   45   -1979.5092434315      3.12E-03
   46   -1979.8104280544      1.48E-03
   47   -1979.8640926262      7.31E-04
   48   -1979.8768998453      4.39E-04
   49   -1979.8828032953      1.88E-04
   50   -1979.8841876329      6.48E-05
   51   -1979.8843933406      3.05E-05
   52   -1979.8844506708      1.19E-05
   53   -1979.8844811797      9.98E-06
   54   -1979.8844955475      5.63E-06
   55   -1979.8845095620      4.68E-06
   56   -1979.8845193804      2.99E-06
   57   -1979.8845243169      2.44E-06
   58   -1979.8845287331      1.91E-06
   59   -1979.8845352034      2.00E-06
   60   -1979.8845421125      1.85E-06
   61   -1979.8845495604      2.09E-06
   62   -1979.8845563479      2.15E-06
   63   -1979.8845723966      2.15E-06
   64   -1979.8845836753      1.64E-06
   65   -1979.8845884542      1.88E-06
   66   -1979.8846091183      3.15E-06
   67   -1979.8845952798      3.73E-06
   68   -1979.8846214925      2.52E-05
   69   -1979.8846276562      2.16E-06
   70   -1979.8846247636      2.61E-05
   71   -1979.8846479789      7.27E-06
   72   -1979.8846496097      1.34E-05
   73   -1979.8846500463      1.68E-05
   74   -1979.8846548964      1.41E-05
   75   -1979.8846557196      1.41E-05
   76   -1979.8846658935      2.86E-06
   77   -1979.8846667947      1.54E-06
   78   -1979.8846668521      1.22E-06
   79   -1979.8846669773      1.51E-06
   80   -1979.8846671172      9.25E-08
   81   -1979.8846671327      9.23E-08
   82   -1979.8846671313      2.59E-07
   83   -1979.8846671355      1.12E-07
   84   -1979.8846671363      7.65E-08
   85   -1979.8846671368      2.18E-08
   86   -1979.8846671368      2.52E-09 Convergence criterion met
 ---------------------------------------
 <S^2> = 3.1523
 SCF time:  CPU 16737.00 s  wall 8372.80 s
 SCF   energy in the final basis set = -1979.88466714
 Total energy in the final basis set = -1979.88466714

 --------------------------------------------------------------

                    Orbital Energies (a.u.)
 --------------------------------------------------------------

 Alpha MOs
 -- Occupied --
******* -24.657 -20.926 -20.924 -20.917 -14.250 -14.249 -14.235
-14.235 -10.176 -10.176 -10.173 -10.173 -10.140 -10.134 -10.131
-10.131 -10.104 -10.097 -10.097 -10.097 -10.094 -10.094 -10.093
-10.092  -6.631  -6.631  -6.625  -6.625  -2.932  -1.887  -1.882
 -1.874  -0.907  -0.901  -0.893  -0.889  -0.748  -0.744  -0.742
 -0.736  -0.734  -0.723  -0.720  -0.700  -0.623  -0.595  -0.590
 -0.566  -0.533  -0.529  -0.524  -0.518  -0.497  -0.491  -0.488
 -0.483  -0.482  -0.445  -0.442  -0.415  -0.393  -0.391  -0.388
 -0.387  -0.385  -0.384  -0.380  -0.372  -0.361  -0.356  -0.350
 -0.347  -0.342  -0.333  -0.314  -0.313  -0.300  -0.295  -0.278
 -0.272  -0.272  -0.270  -0.259  -0.247  -0.243  -0.241  -0.240
 -0.236  -0.226  -0.194
 -- Virtual --
 -0.162  -0.153  -0.135  -0.066  -0.062  -0.024  -0.017  -0.004
  0.004   0.005   0.010   0.017   0.021   0.022   0.036   0.036
  0.038   0.040   0.041   0.044   0.046   0.053   0.059   0.059
  0.061   0.063   0.066   0.071   0.071   0.081   0.081   0.083
  0.089   0.090   0.101   0.109   0.111   0.112   0.114   0.115
  0.118   0.123   0.124   0.125   0.125   0.125   0.137   0.139
  0.141   0.143   0.144   0.153   0.154   0.154   0.158   0.159
  0.164   0.166   0.172   0.174   0.174   0.176   0.181   0.182
  0.188   0.191   0.196   0.196   0.196   0.197   0.202   0.206
  0.207   0.207   0.208   0.209   0.212   0.216   0.217   0.217
  0.220   0.224   0.224   0.227   0.229   0.234   0.239   0.240
  0.247   0.257   0.260   0.262   0.262   0.265   0.267   0.269
  0.271   0.273   0.273   0.274   0.281   0.290   0.291   0.295
  0.305   0.306   0.308   0.311   0.313   0.318   0.326   0.327
  0.330   0.344   0.345   0.346   0.350   0.352   0.354   0.356
  0.363   0.377   0.384   0.386   0.388   0.390   0.399   0.400
  0.406   0.415   0.415   0.417   0.431   0.444   0.445   0.454
  0.462   0.468   0.471   0.475   0.499   0.510   0.518   0.533
  0.536   0.579   0.582   0.582   0.583   0.586   0.611   0.611
  0.632   0.643   0.646   0.676   0.684   0.689   0.695   0.700
  0.705   0.708   0.724   0.725   0.727   0.744   0.745   0.747
  0.749   0.752   0.754   0.763   0.765   0.769   0.786   0.789
  0.794   0.794   0.795   0.796   0.811   0.814   0.814   0.815
  0.824   0.826   0.826   0.829   0.833   0.850   0.852   0.854
  0.882   0.908   0.911   0.917   0.935   0.938   0.944   0.947
  0.974   0.977   0.979   0.980   0.981   0.987   1.021   1.025
  1.028   1.031   1.036   1.037   1.045   1.061   1.077   1.079
  1.086   1.098   1.106   1.108   1.110   1.116   1.119   1.120
  1.122   1.181   1.182   1.186   1.191   1.195   1.197   1.214
  1.229   1.235   1.236   1.236   1.251   1.259   1.278   1.289
  1.293   1.299   1.305   1.308   1.320   1.328   1.331   1.337
  1.352   1.353   1.353   1.355   1.359   1.364   1.378   1.386
  1.387   1.394   1.402   1.405   1.411   1.430   1.435   1.439
  1.447   1.449   1.454   1.461   1.467   1.502   1.527   1.553
  1.576   1.579   1.615   1.617   1.619   1.647   1.647   1.650
  1.676   1.693   1.694   1.701   1.755   1.768   1.777   1.782
  1.814   1.847   1.873   1.901   1.903   1.903   1.905   1.907
  1.926   1.926   1.928   1.936   1.949   1.956   1.992   1.997
  2.001   2.024   2.033   2.033   2.036   2.037   2.047   2.065
  2.074   2.076   2.081   2.086   2.095   2.098   2.107   2.114
  2.119   2.126   2.134   2.138   2.172   2.210   2.215   2.219
  2.233   2.271   2.276   2.293   2.296   2.297   2.299   2.346
  2.347   2.352   2.368   2.371   2.373   2.373   2.392   2.397
  2.410   2.419   2.426   2.438   2.477   2.481   2.482   2.482
  2.537   2.538   2.546   2.548   2.554   2.587   2.615   2.617
  2.628   2.649   2.653   2.694   2.694   2.699   2.716   2.734
  2.738   2.789   2.796   2.809   2.812   2.817   2.863   2.866
  2.874   2.896   2.899   2.902   2.925   2.962   2.993   2.998
  2.999   3.076   3.079   3.117   3.118   3.179   3.187   3.188
  3.291   3.353   3.357   3.430   3.432   3.901   3.906   3.923
  3.926   4.378   4.391   4.396   4.397   4.468   4.484   4.485
  4.498   4.578   4.580   4.583   4.584   4.594   4.653   4.653
  4.691   4.733   4.806   4.808   4.839  13.898

 Beta MOs
 -- Occupied --
******* -24.614 -20.895 -20.885 -20.880 -14.254 -14.254 -14.238
-14.238 -10.175 -10.175 -10.172 -10.172 -10.141 -10.134 -10.130
-10.130 -10.104 -10.098 -10.098 -10.097 -10.097 -10.097 -10.096
-10.096  -6.630  -6.630  -6.624  -6.624  -2.804  -1.767  -1.744
 -1.732  -0.910  -0.905  -0.894  -0.892  -0.752  -0.748  -0.747
 -0.738  -0.735  -0.728  -0.726  -0.707  -0.624  -0.597  -0.591
 -0.567  -0.534  -0.530  -0.524  -0.517  -0.497  -0.492  -0.488
 -0.483  -0.482  -0.446  -0.444  -0.417  -0.400  -0.392  -0.391
 -0.389  -0.385  -0.384  -0.383  -0.371  -0.366  -0.352  -0.351
 -0.348  -0.336  -0.326  -0.316  -0.314  -0.297  -0.294  -0.287
 -0.279  -0.271  -0.259  -0.254  -0.254  -0.248  -0.240  -0.235
 -0.197
 -- Virtual --
 -0.136  -0.093  -0.085  -0.068  -0.058  -0.048  -0.035  -0.032
 -0.001   0.004   0.005   0.015   0.016   0.018   0.027   0.036
  0.036   0.037   0.037   0.039   0.041   0.044   0.046   0.053
  0.059   0.062   0.065   0.065   0.068   0.072   0.072   0.081
  0.081   0.088   0.089   0.093   0.108   0.109   0.111   0.112
  0.114   0.115   0.118   0.122   0.124   0.124   0.125   0.127
  0.136   0.139   0.141   0.143   0.144   0.153   0.154   0.154
  0.156   0.163   0.165   0.167   0.171   0.172   0.174   0.176
  0.181   0.181   0.188   0.192   0.192   0.193   0.196   0.197
  0.201   0.202   0.203   0.207   0.208   0.209   0.213   0.216
  0.217   0.217   0.219   0.224   0.226   0.228   0.235   0.237
  0.239   0.240   0.247   0.257   0.261   0.261   0.262   0.266
  0.270   0.271   0.273   0.274   0.274   0.277   0.284   0.290
  0.291   0.298   0.305   0.307   0.312   0.314   0.318   0.321
  0.324   0.327   0.329   0.344   0.346   0.347   0.351   0.351
  0.354   0.355   0.363   0.382   0.384   0.387   0.389   0.402
  0.402   0.404   0.416   0.416   0.417   0.418   0.431   0.443
  0.444   0.454   0.463   0.468   0.471   0.475   0.500   0.508
  0.517   0.534   0.537   0.577   0.581   0.582   0.583   0.590
  0.609   0.610   0.632   0.643   0.647   0.678   0.686   0.690
  0.691   0.702   0.710   0.715   0.721   0.724   0.726   0.741
  0.745   0.747   0.752   0.753   0.753   0.754   0.765   0.769
  0.787   0.788   0.794   0.795   0.797   0.797   0.813   0.814
  0.815   0.815   0.815   0.818   0.824   0.828   0.838   0.842
  0.856   0.860   0.882   0.908   0.912   0.917   0.935   0.938
  0.944   0.947   0.975   0.979   0.980   0.986   0.989   0.990
  1.011   1.024   1.024   1.030   1.033   1.034   1.046   1.057
  1.077   1.080   1.084   1.102   1.105   1.109   1.117   1.119
  1.124   1.125   1.132   1.180   1.186   1.190   1.193   1.194
  1.194   1.219   1.225   1.234   1.236   1.236   1.251   1.265
  1.279   1.294   1.302   1.303   1.305   1.307   1.319   1.327
  1.330   1.336   1.353   1.353   1.355   1.359   1.360   1.362
  1.380   1.382   1.382   1.401   1.403   1.405   1.418   1.431
  1.433   1.443   1.447   1.449   1.452   1.466   1.467   1.503
  1.537   1.553   1.576   1.580   1.615   1.638   1.647   1.648
  1.652   1.652   1.692   1.694   1.698   1.702   1.754   1.773
  1.776   1.783   1.827   1.846   1.864   1.891   1.894   1.906
  1.909   1.912   1.923   1.931   1.932   1.945   1.947   1.948
  1.991   2.004   2.006   2.026   2.029   2.029   2.030   2.048
  2.058   2.082   2.083   2.084   2.085   2.088   2.101   2.116
  2.123   2.130   2.131   2.134   2.136   2.156   2.171   2.210
  2.216   2.252   2.257   2.271   2.277   2.295   2.301   2.306
  2.334   2.349   2.365   2.367   2.368   2.370   2.374   2.375
  2.413   2.420   2.424   2.428   2.429   2.464   2.473   2.479
  2.485   2.487   2.537   2.553   2.555   2.559   2.563   2.581
  2.609   2.610   2.632   2.644   2.654   2.685   2.694   2.698
  2.715   2.747   2.751   2.788   2.795   2.808   2.811   2.813
  2.862   2.865   2.873   2.894   2.899   2.901   2.927   2.955
  2.992   2.996   2.996   3.072   3.077   3.125   3.126   3.180
  3.187   3.192   3.289   3.350   3.354   3.429   3.432   3.901
  3.906   3.923   3.927   4.377   4.390   4.396   4.397   4.463
  4.479   4.482   4.496   4.573   4.576   4.582   4.583   4.590
  4.647   4.648   4.684   4.729   4.801   4.804   4.833  13.965
 --------------------------------------------------------------

          Ground-State Mulliken Net Atomic Charges

     Atom                 Charge (a.u.)    Spin (a.u.)
  --------------------------------------------------------
      1 C                     0.800501       0.076579
      2 C                    -0.520748      -0.227997
      3 B                     0.575475       0.049270
      4 N                    -0.616070      -0.218594
      5 B                     0.583498       0.029230
      6 C                    -0.055134       0.008207
      7 C                    -1.073147      -0.087226
      8 H                     0.196378      -0.000019
      9 H                     0.203264       0.001384
     10 C                    -0.060129      -0.011865
     11 C                    -1.098496      -0.005656
     12 C                     0.829075       0.035658
     13 H                     0.192196       0.000391
     14 H                     0.198863      -0.001886
     15 N                    -0.612801      -0.170303
     16 C                    -0.512140      -0.219045
     17 B                     0.582811       0.029898
     18 N                    -0.621634      -0.219660
     19 C                    -0.068381       0.008490
     20 C                    -1.085490      -0.087785
     21 C                     0.763675       0.078981
     22 C                    -0.477185      -0.228906
     23 B                     0.575894       0.049617
     24 N                    -0.612101      -0.168880
     25 C                     0.822718       0.035661
     26 C                    -1.099815      -0.006379
     27 C                    -0.058127      -0.011801
     28 H                     0.198922      -0.001870
     29 H                     0.192215       0.000383
     30 C                    -0.539734      -0.216973
     31 Cr                    1.237691       3.420518
     32 H                     0.191481       0.014630
     33 H                     0.191376       0.014989
     34 H                     0.191670       0.014723
     35 H                     0.191312       0.014946
     36 H                     0.198921       0.001346
     37 H                     0.193195      -0.000055
  --------------------------------------------------------
  Sum of atomic charges =    -0.000000
  Sum of spin   charges =     2.000000

 -----------------------------------------------------------------
                    Cartesian Multipole Moments
 -----------------------------------------------------------------
    Charge (ESU x 10^10)
                 0.0000
    Dipole Moment (Debye)
         X       0.0689      Y      -0.0570      Z      -0.0001
       Tot       0.0894
    Quadrupole Moments (Debye-Ang)
        XX    -134.0992     XY      -3.4098     YY    -136.4033
        XZ      -0.0635     YZ      -0.0077     ZZ    -154.4272
    Octopole Moments (Debye-Ang^2)
       XXX    -498.3312    XXY    -224.6678    XYY    -178.3867
       YYY    -654.0773    XXZ      -0.1242    XYZ      -0.1067
       YYZ       0.0046    XZZ    -191.4126    YZZ    -246.8765
       ZZZ       0.1134
    Hexadecapole Moments (Debye-Ang^3)
      XXXX   -5926.6756   XXXY    -898.5587   XXYY   -2232.0266
      XYYY    -840.1149   YYYY   -6832.8232   XXXZ       5.8098
      XXYZ       0.7536   XYYZ       2.1007   YYYZ       2.0484
      XXZZ   -1204.4163   XYZZ    -310.8355   YYZZ   -1365.2682
      XZZZ       9.1195   YZZZ       3.1026   ZZZZ    -183.4510
 -----------------------------------------------------------------
 Calculating analytic gradient of the SCF energy
 Gradient of SCF Energy
            1           2           3           4           5           6
    1   0.0083473   0.0052849  -0.0285286   0.0012371   0.0036899   0.0690076
    2   0.0235865  -0.0889906   0.0054565   0.0778016   0.0140149  -0.0353736
    3  -0.0000535   0.0000761   0.0000880  -0.0000852  -0.0000249  -0.0001917
            7           8           9          10          11          12
    1   0.0019270   0.0108099   0.0025412   0.0336451   0.0330039  -0.0198742
    2  -0.0244986  -0.0023604   0.0025643   0.0780675   0.0037012  -0.0068404
    3   0.0000210  -0.0000336  -0.0000114  -0.0001922  -0.0001119   0.0000713
           13          14          15          16          17          18
    1   0.0025975  -0.0023858  -0.0610085   0.0847928  -0.0035362  -0.0022504
    2   0.0112047   0.0025690   0.0151914   0.0064781  -0.0123457  -0.0785324
    3  -0.0000204   0.0000051   0.0001852  -0.0002822   0.0000218   0.0000900
           19          20          21          22          23          24
    1  -0.0624379   0.0395640  -0.0094696  -0.0050793   0.0281385   0.0612919
    2  -0.0043612   0.0220655  -0.0235442   0.0888020  -0.0054392  -0.0158068
    3   0.0002096  -0.0001565   0.0000585  -0.0000789  -0.0000862  -0.0001849
           25          26          27          28          29          30
    1   0.0198611  -0.0329152  -0.0336239   0.0023909  -0.0025950  -0.0845215
    2   0.0069634  -0.0037096  -0.0780607  -0.0025686  -0.0112042  -0.0064594
    3  -0.0000734   0.0001122   0.0001937  -0.0000051   0.0000205   0.0002831
           31          32          33          34          35          36
    1   0.0001895  -0.0061228  -0.0476104   0.0061449   0.0476093  -0.0442491
    2   0.0006225  -0.0474921   0.0065167   0.0474788  -0.0065037  -0.0020507
    3  -0.0000012   0.0000699   0.0001513  -0.0000696  -0.0001513   0.0001491
           37
    1  -0.0158657
    2   0.0430571
    3   0.0000078
 Max gradient component =       8.899E-02
 RMS gradient           =       2.965E-02
 Gradient time:  CPU 741.24 s  wall 480.67 s
 Geometry Optimization Parameters
   NAtoms,    NIC,     NZ,  NCons,   NDum,   NFix, NCnnct, MaxDiis
       37     332       0       0       0       0       0       0


** GEOMETRY OPTIMIZATION IN DELOCALIZED INTERNAL COORDINATES **
   Searching for a Minimum

   Optimization Cycle:   1

                       Coordinates (Angstroms)
     ATOM                X               Y               Z
      1  C        -1.5853600000    2.7010700000    0.0079000000
      2  C        -2.1764600000    1.4449900000    0.0111900000
      3  B        -1.4770700000    0.2458800000    0.0101300000
      4  N        -0.2243000000    2.9378100000    0.0031400000
      5  B        -0.1073100000    4.3154000000    0.0013300000
      6  C        -1.4026800000    4.9426700000    0.0049600000
      7  C        -2.3241100000    3.9362100000    0.0090800000
      8  H        -1.5690000000    6.0128900000    0.0044000000
      9  H        -3.4048400000    4.0076600000    0.0126100000
     10  C        -2.1043400000   -1.0494900000    0.0135600000
     11  C        -1.0978800000   -1.9709300000    0.0111900000
     12  C         0.1372600000   -1.2321800000    0.0063500000
     13  H        -3.1745500000   -1.2158100000    0.0172700000
     14  H        -1.1693200000   -3.0516600000    0.0125500000
     15  N        -0.0996400000    0.1290300000    0.0057100000
     16  C         1.3933300000   -1.8232900000    0.0028400000
     17  B         2.5924300000   -1.1239000000   -0.0018100000
     18  N         2.7087400000    0.2529500000   -0.0036200000
     19  C         3.8878000000   -1.7511700000   -0.0054200000
     20  C         4.8092300000   -0.7447100000   -0.0095400000
     21  C         4.0704800000    0.4904300000   -0.0083800000
     22  C         4.6615800000    1.7465100000   -0.0117000000
     23  B         3.9621900000    2.9456200000   -0.0106600000
     24  N         2.5852000000    3.0620700000   -0.0062300000
     25  C         2.3478600000    4.4236800000   -0.0068800000
     26  C         3.5830000000    5.1624300000   -0.0117400000
     27  C         4.5894600000    4.2409900000   -0.0141100000
     28  H         3.6544400000    6.2431600000   -0.0131100000
     29  H         5.6596700000    4.4073100000   -0.0178300000
     30  C         1.0917900000    5.0147900000   -0.0033400000
     31  Cr        1.2428000000    1.5968800000   -0.0002500000
     32  H         1.0463100000    6.0457900000   -0.0042400000
     33  H         5.6925700000    1.7919900000   -0.0151800000
     34  H         1.4388100000   -2.8542900000    0.0037500000
     35  H        -3.2074500000    1.3995100000    0.0146700000
     36  H         5.8359500000   -0.8489200000   -0.0128400000
     37  H         4.0819500000   -2.7647400000   -0.0049800000
   Point Group: c1    Number of degrees of freedom:   105


   Energy is  -1979.884667137


 Attempting to Generate Delocalized Internal Coordinates

105 Hessian modes will be used to form the next step
  Hessian Eigenvalues:
     0.008446    0.011413    0.011418    0.011599    0.016801    0.017877
     0.019269    0.019274    0.021755    0.021840    0.021884    0.021897
     0.022256    0.022468    0.022585    0.022613    0.026485    0.026943
     0.026950    0.026950    0.026951    0.027171    0.027171    0.027206
     0.027440    0.027672    0.027905    0.027905    0.029029    0.029430
     0.029430    0.029678    0.064481    0.103366    0.160000    0.160000
     0.160000    0.160000    0.160000    0.160000    0.160000    0.160000
     0.160000    0.160000    0.160000    0.160000    0.170582    0.170590
     0.177095    0.190766    0.227240    0.227241    0.227302    0.228216
     0.228216    0.228560    0.234999    0.237064    0.239718    0.239718
     0.247761    0.248552    0.248552    0.250000    0.250000    0.356229
     0.356236    0.356236    0.356263    0.356268    0.356268    0.358824
     0.358827    0.361719    0.362371    0.365942    0.376222    0.380947
     0.380950    0.401005    0.406795    0.406798    0.407502    0.424769
     0.424769    0.424774    0.424776    0.424776    0.424778    0.446270
     0.448219    0.448270    0.448612    0.460147    0.465012    0.465016
     0.473569    0.474267    0.475818    0.475822    0.476068    0.506920
     0.507957    0.508273    0.508277

 Minimum Search - Taking Simple RFO Step
 Searching for Lamda that Minimizes Along All modes
 Value Taken    Lamda =  -0.18729994
 Calculated Step too Large.  Step scaled by  0.533062
 Step Taken.  Stepsize is  0.300000

                             Maximum     Tolerance    Cnvgd?
         Gradient           0.229655      0.000300      NO
         Displacement       0.209377      0.001200      NO
         Energy change     *********      0.000001      NO


 New Cartesian Coordinates Obtained by Inverse Iteration

 Displacement from previous Coordinates is:  0.661399
 ----------------------------------------------------------------
             Standard Nuclear Orientation (Angstroms)
    I     Atom           X                Y                Z
 ----------------------------------------------------------------
    1      C      -1.6133630336     2.7141114997     0.0079794315
    2      C      -2.2216499103     1.4692706875     0.0113150492
    3      B      -1.5103679387     0.2270777750     0.0102607698
    4      N      -0.2411532951     2.9359134574     0.0031981064
    5      B      -0.1168408288     4.3445647292     0.0013314052
    6      C      -1.4513650085     4.9805153609     0.0050811110
    7      C      -2.3561810422     3.9614454316     0.0091583843
    8      H      -1.6468527113     6.0478989978     0.0046204037
    9      H      -3.4388562949     4.0211178654     0.0127062550
   10      C      -2.1497481020    -1.1094632436     0.0137728664
   11      C      -1.1323817578    -2.0122034493     0.0113464582
   12      C       0.1142386425    -1.2629383655     0.0064579414
   13      H      -3.2172797578    -1.3049370154     0.0175044100
   14      H      -1.1899769860    -3.0950111941     0.0126621581
   15      N      -0.1065565645     0.1053702896     0.0057581562
   16      C       1.3618297015    -1.8675678630     0.0029888697
   17      B       2.6011535446    -1.1526759470    -0.0018086031
   18      N       2.7251402237     0.2554292970    -0.0036770226
   19      C       3.9354282772    -1.7888324211    -0.0055364570
   20      C       4.8407117183    -0.7687555588    -0.0096164713
   21      C       4.0978506018     0.4781766264    -0.0084576819
   22      C       4.7059067552     1.7232245190    -0.0118225229
   23      B       3.9946492172     2.9654165382    -0.0107894154
   24      N       2.5912338168     3.0866056262    -0.0062764948
   25      C       2.3698215359     4.4552592258    -0.0069854916
   26      C       3.6163188825     5.2046707433    -0.0118945897
   27      C       4.6338287191     4.3020555925    -0.0143219852
   28      H       3.6737599714     6.2874862753    -0.0132198827
   29      H       5.7013308066     4.4976834830    -0.0180640796
   30      C       1.1221594046     5.0597365719    -0.0034862036
   31      Cr      1.2424359358     1.5971249441    -0.0002491428
   32      H       1.0969897549     6.1131805774    -0.0044773330
   33      H       5.7594775757     1.7442709235    -0.0153507209
   34      H       1.3867526844    -2.9210111348     0.0039900345
   35      H      -3.2752221665     1.4483093723     0.0148436461
   36      H       5.8891433591    -0.8575978168    -0.0130036511
   37      H       4.1561742691    -2.8182924009    -0.0051677074
 ----------------------------------------------------------------
 Nuclear Repulsion Energy =  2316.8607464110 hartrees
 There are       91 alpha and       89 beta electrons
 Applying Cartesian multipole field
    Component          Value
    ---------          -----
     (2,0,0)        1.00000E-12
     (0,2,0)        2.00000E-12
     (0,0,2)       -3.00000E-11
 Nucleus-field energy     =     0.0000000151 hartrees
 Requested basis set is 6-31+G(d)
 There are 152 shells and 516 basis functions
 A cutoff of  1.0D-14 yielded   9159 shell pairs
 There are    114645 function pairs (    116175 Cartesian)
 Smallest overlap matrix eigenvalue = 5.86E-07
 Linear dependence detected in AO basis
 Number of orthogonalized atomic orbitals = 513
 Maximum deviation from orthogonality = 1.132E-10
 Guess MOs from SCF MO coefficient file
 Reading MOs from coefficient file
 Reading MOs from coefficient file
 An unrestricted hybrid HF-DFT SCF calculation will be
 performed using Pulay DIIS extrapolation
 Exchange:     0.1000 Hartree-Fock + 0.9000 TPSS
 Correlation:  1.0000 TPSS
 Using Euler-Maclaurin-Lebedev (75,302) quadrature formula
 SCF converges when DIIS error is below 1.0E-08
 Geometry optimization detected.  Setting ReadMinima to 0
 Setting SaveMinima to 0
 using 2 threads for integral computing
 -------------------------------------------------------
 OpenMP Integral computing Module
 Release: version 1.0, May 2013, Q-Chem Inc. Pittsburgh
 -------------------------------------------------------
 -------------------------------------------------------
 OpenMP BLAS3 based DFT computing Module
 Release: version 1.0, May 2013, Q-Chem Inc. Pittsburgh
 -------------------------------------------------------
 ---------------------------------------
  Cycle       Energy         DIIS Error
 ---------------------------------------
    1   -1979.7860947094      1.14E-03
    2   -1979.9634785853      1.23E-04
    3   -1979.9624521915      2.03E-04
    4   -1979.9639668094      7.73E-05
    5   -1979.9641338034      4.58E-05
    6   -1979.9642167953      2.23E-05
    7   -1979.9642298173      9.01E-06
    8   -1979.9642321946      7.66E-06
    9   -1979.9642343847      3.34E-06
   10   -1979.9642350262      2.40E-06
   11   -1979.9642357061      1.27E-06
   12   -1979.9642362345      7.22E-07
   13   -1979.9642366000      5.58E-07
   14   -1979.9642371246      6.07E-07
   15   -1979.9642381245      8.80E-07
   16   -1979.9642393660      7.87E-07
   17   -1979.9642398638      5.20E-07
   18   -1979.9642399497      2.10E-07
   19   -1979.9642400098      2.08E-07
   20   -1979.9642400244      3.88E-08
   21   -1979.9642400266      3.71E-08
   22   -1979.9642400283      2.79E-08
   23   -1979.9642400294      8.71E-09 Convergence criterion met
 ---------------------------------------
 <S^2> = 3.1722
 SCF time:  CPU 4258.67 s  wall 2130.48 s
 SCF   energy in the final basis set = -1979.96424003
 Total energy in the final basis set = -1979.96424003

 --------------------------------------------------------------

                    Orbital Energies (a.u.)
 --------------------------------------------------------------

 Alpha MOs
 -- Occupied --
******* -24.659 -20.928 -20.926 -20.920 -14.256 -14.256 -14.241
-14.241 -10.178 -10.178 -10.175 -10.175 -10.142 -10.138 -10.133
-10.133 -10.108 -10.104 -10.103 -10.103 -10.102 -10.102 -10.100
-10.100  -6.648  -6.648  -6.642  -6.642  -2.935  -1.889  -1.884
 -1.877  -0.900  -0.895  -0.887  -0.884  -0.747  -0.743  -0.738
 -0.736  -0.733  -0.720  -0.716  -0.699  -0.615  -0.590  -0.585
 -0.564  -0.527  -0.525  -0.520  -0.515  -0.496  -0.489  -0.487
 -0.482  -0.477  -0.442  -0.440  -0.412  -0.391  -0.388  -0.388
 -0.388  -0.384  -0.380  -0.376  -0.374  -0.358  -0.354  -0.350
 -0.348  -0.340  -0.332  -0.313  -0.312  -0.301  -0.294  -0.280
 -0.273  -0.273  -0.268  -0.260  -0.248  -0.246  -0.244  -0.239
 -0.234  -0.228  -0.196
 -- Virtual --
 -0.164  -0.155  -0.131  -0.066  -0.062  -0.025  -0.025  -0.004
  0.004   0.005   0.010   0.017   0.020   0.022   0.035   0.036
  0.038   0.039   0.039   0.044   0.045   0.052   0.058   0.058
  0.060   0.062   0.064   0.070   0.072   0.079   0.080   0.081
  0.088   0.089   0.097   0.106   0.107   0.110   0.113   0.114
  0.117   0.121   0.122   0.124   0.124   0.125   0.133   0.136
  0.141   0.141   0.142   0.153   0.153   0.154   0.156   0.156
  0.163   0.163   0.170   0.173   0.174   0.175   0.180   0.180
  0.188   0.188   0.190   0.191   0.194   0.195   0.199   0.201
  0.201   0.204   0.204   0.205   0.208   0.212   0.214   0.215
  0.216   0.221   0.222   0.222   0.225   0.230   0.236   0.237
  0.241   0.251   0.256   0.258   0.259   0.260   0.263   0.264
  0.266   0.267   0.270   0.270   0.278   0.287   0.288   0.289
  0.299   0.300   0.304   0.309   0.310   0.314   0.323   0.325
  0.325   0.339   0.339   0.340   0.347   0.347   0.349   0.349
  0.360   0.373   0.380   0.381   0.382   0.383   0.394   0.395
  0.402   0.410   0.412   0.413   0.423   0.436   0.439   0.441
  0.444   0.457   0.460   0.461   0.492   0.493   0.515   0.520
  0.524   0.561   0.566   0.568   0.570   0.577   0.595   0.597
  0.628   0.639   0.642   0.669   0.673   0.673   0.694   0.705
  0.706   0.707   0.712   0.722   0.725   0.738   0.740   0.742
  0.744   0.751   0.753   0.762   0.764   0.767   0.771   0.781
  0.783   0.785   0.791   0.792   0.799   0.800   0.801   0.809
  0.815   0.817   0.824   0.824   0.824   0.839   0.840   0.852
  0.885   0.906   0.908   0.912   0.934   0.939   0.943   0.946
  0.974   0.975   0.976   0.978   0.981   0.985   1.018   1.021
  1.025   1.026   1.027   1.030   1.040   1.045   1.065   1.066
  1.068   1.082   1.091   1.096   1.099   1.105   1.114   1.117
  1.118   1.172   1.174   1.177   1.179   1.183   1.194   1.201
  1.221   1.223   1.224   1.229   1.237   1.247   1.260   1.286
  1.286   1.287   1.290   1.290   1.308   1.316   1.318   1.327
  1.338   1.341   1.342   1.351   1.358   1.365   1.367   1.377
  1.382   1.385   1.389   1.392   1.402   1.427   1.432   1.432
  1.433   1.434   1.440   1.444   1.464   1.495   1.512   1.542
  1.568   1.571   1.592   1.603   1.607   1.629   1.631   1.636
  1.650   1.674   1.677   1.685   1.746   1.752   1.765   1.769
  1.808   1.820   1.861   1.871   1.880   1.883   1.888   1.889
  1.905   1.906   1.908   1.913   1.924   1.951   1.968   1.971
  1.976   2.001   2.009   2.014   2.017   2.019   2.020   2.046
  2.048   2.050   2.054   2.060   2.062   2.065   2.069   2.076
  2.083   2.111   2.114   2.116   2.123   2.197   2.201   2.203
  2.206   2.245   2.265   2.267   2.270   2.276   2.280   2.318
  2.319   2.321   2.332   2.348   2.354   2.358   2.361   2.365
  2.377   2.384   2.394   2.422   2.456   2.461   2.461   2.463
  2.496   2.505   2.505   2.509   2.527   2.562   2.585   2.588
  2.602   2.608   2.622   2.650   2.665   2.668   2.691   2.704
  2.707   2.760   2.771   2.781   2.782   2.785   2.841   2.843
  2.846   2.863   2.865   2.884   2.890   2.918   2.957   2.961
  2.964   3.029   3.032   3.057   3.063   3.139   3.153   3.156
  3.255   3.296   3.303   3.372   3.374   3.885   3.897   3.908
  3.912   4.369   4.375   4.382   4.385   4.424   4.453   4.455
  4.488   4.549   4.551   4.557   4.564   4.566   4.621   4.624
  4.659   4.705   4.779   4.782   4.816  13.746

 Beta MOs
 -- Occupied --
******* -24.616 -20.897 -20.886 -20.882 -14.260 -14.260 -14.243
-14.243 -10.177 -10.177 -10.174 -10.174 -10.142 -10.138 -10.132
-10.132 -10.109 -10.106 -10.106 -10.105 -10.103 -10.103 -10.102
-10.102  -6.647  -6.647  -6.641  -6.641  -2.805  -1.768  -1.744
 -1.734  -0.904  -0.899  -0.889  -0.887  -0.750  -0.747  -0.743
 -0.738  -0.735  -0.726  -0.723  -0.706  -0.616  -0.592  -0.586
 -0.565  -0.528  -0.526  -0.521  -0.514  -0.496  -0.490  -0.487
 -0.483  -0.477  -0.444  -0.442  -0.414  -0.395  -0.391  -0.389
 -0.388  -0.385  -0.385  -0.379  -0.372  -0.363  -0.352  -0.350
 -0.349  -0.335  -0.326  -0.314  -0.313  -0.297  -0.294  -0.282
 -0.282  -0.274  -0.259  -0.256  -0.253  -0.246  -0.239  -0.237
 -0.198
 -- Virtual --
 -0.132  -0.093  -0.085  -0.069  -0.059  -0.050  -0.036  -0.033
 -0.001   0.004   0.005   0.015   0.015   0.017   0.027   0.031
  0.034   0.035   0.035   0.038   0.040   0.044   0.045   0.052
  0.058   0.061   0.062   0.063   0.067   0.071   0.072   0.079
  0.080   0.086   0.088   0.092   0.104   0.105   0.107   0.109
  0.113   0.114   0.117   0.119   0.121   0.123   0.124   0.127
  0.129   0.138   0.140   0.141   0.141   0.153   0.153   0.154
  0.155   0.161   0.163   0.164   0.169   0.169   0.174   0.175
  0.179   0.180   0.185   0.186   0.188   0.189   0.194   0.195
  0.199   0.199   0.199   0.204   0.205   0.205   0.209   0.212
  0.213   0.215   0.216   0.222   0.222   0.224   0.233   0.234
  0.236   0.237   0.242   0.251   0.257   0.257   0.258   0.262
  0.265   0.266   0.267   0.270   0.271   0.274   0.281   0.287
  0.288   0.291   0.299   0.301   0.310   0.310   0.313   0.315
  0.322   0.322   0.325   0.340   0.340   0.340   0.347   0.347
  0.348   0.349   0.359   0.376   0.381   0.382   0.383   0.397
  0.398   0.400   0.409   0.411   0.412   0.413   0.423   0.435
  0.438   0.441   0.444   0.457   0.460   0.461   0.490   0.495
  0.514   0.520   0.525   0.560   0.566   0.568   0.569   0.580
  0.593   0.595   0.628   0.639   0.643   0.665   0.675   0.683
  0.690   0.705   0.710   0.712   0.713   0.719   0.724   0.738
  0.739   0.740   0.746   0.751   0.752   0.753   0.763   0.768
  0.771   0.784   0.784   0.787   0.790   0.792   0.801   0.802
  0.804   0.808   0.812   0.813   0.818   0.820   0.823   0.841
  0.845   0.847   0.885   0.906   0.908   0.912   0.934   0.939
  0.943   0.946   0.974   0.975   0.982   0.983   0.985   0.988
  1.007   1.019   1.021   1.021   1.022   1.030   1.041   1.043
  1.065   1.066   1.067   1.090   1.095   1.097   1.099   1.113
  1.113   1.121   1.130   1.171   1.178   1.178   1.182   1.184
  1.190   1.209   1.219   1.222   1.223   1.229   1.238   1.250
  1.260   1.286   1.287   1.290   1.291   1.300   1.307   1.315
  1.317   1.326   1.342   1.343   1.347   1.350   1.357   1.363
  1.368   1.376   1.380   1.388   1.388   1.391   1.406   1.424
  1.430   1.432   1.433   1.440   1.441   1.447   1.463   1.496
  1.522   1.542   1.568   1.571   1.593   1.628   1.630   1.632
  1.636   1.639   1.673   1.675   1.677   1.684   1.746   1.757
  1.763   1.770   1.817   1.820   1.852   1.871   1.878   1.880
  1.885   1.888   1.907   1.911   1.913   1.915   1.921   1.943
  1.973   1.976   1.976   2.003   2.010   2.011   2.013   2.021
  2.023   2.052   2.057   2.058   2.058   2.060   2.071   2.074
  2.078   2.091   2.108   2.114   2.122   2.126   2.139   2.195
  2.202   2.222   2.245   2.248   2.263   2.269   2.275   2.278
  2.319   2.322   2.330   2.331   2.333   2.345   2.353   2.363
  2.387   2.391   2.399   2.400   2.405   2.440   2.452   2.458
  2.468   2.470   2.507   2.514   2.516   2.522   2.533   2.557
  2.578   2.582   2.602   2.606   2.622   2.641   2.664   2.667
  2.689   2.718   2.719   2.756   2.771   2.779   2.781   2.784
  2.840   2.841   2.846   2.862   2.864   2.880   2.891   2.912
  2.956   2.960   2.963   3.027   3.030   3.065   3.070   3.143
  3.154   3.157   3.253   3.292   3.300   3.372   3.374   3.886
  3.897   3.908   3.912   4.367   4.374   4.381   4.385   4.418
  4.448   4.452   4.486   4.544   4.547   4.555   4.560   4.563
  4.615   4.618   4.652   4.702   4.774   4.778   4.811  13.815
 --------------------------------------------------------------

          Ground-State Mulliken Net Atomic Charges

     Atom                 Charge (a.u.)    Spin (a.u.)
  --------------------------------------------------------
      1 C                     0.742778       0.076883
      2 C                    -0.614307      -0.231301
      3 B                     0.644311       0.046860
      4 N                    -0.566661      -0.233857
      5 B                     0.654805       0.030598
      6 C                    -0.129491       0.003658
      7 C                    -0.949051      -0.077883
      8 H                     0.197596       0.000251
      9 H                     0.203023       0.001125
     10 C                    -0.135035      -0.013016
     11 C                    -0.978019      -0.004746
     12 C                     0.772112       0.025460
     13 H                     0.193449       0.000460
     14 H                     0.199006      -0.001741
     15 N                    -0.561909      -0.175777
     16 C                    -0.620861      -0.210774
     17 B                     0.656437       0.031410
     18 N                    -0.569217      -0.234772
     19 C                    -0.137785       0.004038
     20 C                    -0.962528      -0.078645
     21 C                     0.721298       0.078762
     22 C                    -0.584287      -0.232174
     23 B                     0.644701       0.047200
     24 N                    -0.561614      -0.174213
     25 C                     0.767906       0.025131
     26 C                    -0.978723      -0.005096
     27 C                    -0.133984      -0.013162
     28 H                     0.199036      -0.001734
     29 H                     0.193460       0.000463
     30 C                    -0.634226      -0.208230
     31 Cr                    1.152124       3.464843
     32 H                     0.194367       0.014285
     33 H                     0.194788       0.014998
     34 H                     0.194526       0.014399
     35 H                     0.194621       0.014957
     36 H                     0.201356       0.001118
     37 H                     0.195995       0.000222
  --------------------------------------------------------
  Sum of atomic charges =    -0.000000
  Sum of spin   charges =     2.000000

 -----------------------------------------------------------------
                    Cartesian Multipole Moments
 -----------------------------------------------------------------
    Charge (ESU x 10^10)
                -0.0000
    Dipole Moment (Debye)
         X       0.0474      Y      -0.0365      Z      -0.0001
       Tot       0.0598
    Quadrupole Moments (Debye-Ang)
        XX    -134.1120     XY      -3.1871     YY    -136.5851
        XZ      -0.0673     YZ      -0.0093     ZZ    -155.5104
    Octopole Moments (Debye-Ang^2)
       XXX    -498.5662    XXY    -223.6714    XYY    -178.4357
       YYY    -654.6145    XXZ      -0.1343    XYZ      -0.1156
       YYZ       0.0010    XZZ    -192.8839    YZZ    -248.4885
       ZZZ       0.1151
    Hexadecapole Moments (Debye-Ang^3)
      XXXX   -6041.6298   XXXY    -900.4167   XXYY   -2264.7662
      XYYY    -844.5288   YYYY   -6954.3558   XXXZ       5.8792
      XXYZ       0.7395   XYYZ       2.0957   YYYZ       2.0846
      XXZZ   -1235.7615   XYZZ    -314.9418   YYZZ   -1398.2286
      XZZZ       9.4097   YZZZ       3.2178   ZZZZ    -186.0769
 -----------------------------------------------------------------
 Calculating analytic gradient of the SCF energy
 Gradient of SCF Energy
            1           2           3           4           5           6
    1   0.0061981   0.0018658  -0.0158313   0.0026627  -0.0010778   0.0411580
    2   0.0163046  -0.0530885   0.0014626   0.0488751   0.0052738  -0.0207905
    3  -0.0000382   0.0000494   0.0000507  -0.0000601  -0.0000013  -0.0001150
            7           8           9          10          11          12
    1  -0.0021332   0.0084138   0.0018153   0.0203861   0.0226782  -0.0139125
    2  -0.0173635  -0.0004582   0.0025522   0.0462475  -0.0002985  -0.0064058
    3   0.0000272  -0.0000276  -0.0000090  -0.0001153  -0.0000741   0.0000515
           13          14          15          16          17          18
    1   0.0006053  -0.0025376  -0.0351569   0.0486868   0.0013649  -0.0034007
    2   0.0086231   0.0017949   0.0155838   0.0029494  -0.0039267  -0.0493616
    3  -0.0000108   0.0000064   0.0000995  -0.0001609  -0.0000016   0.0000637
           19          20          21          22          23          24
    1  -0.0380258   0.0273469  -0.0071775  -0.0017449   0.0156248   0.0353677
    2  -0.0034891   0.0176813  -0.0164105   0.0530337  -0.0014680  -0.0160690
    3   0.0001282  -0.0001113   0.0000428  -0.0000513  -0.0000498  -0.0000990
           25          26          27          28          29          30
    1   0.0139201  -0.0226210  -0.0203653   0.0025387  -0.0006046  -0.0486069
    2   0.0064601   0.0002984  -0.0462390  -0.0017934  -0.0086255  -0.0029951
    3  -0.0000534   0.0000743   0.0001163  -0.0000064   0.0000109   0.0001617
           31          32          33          34          35          36
    1   0.0001249  -0.0047524  -0.0280026   0.0047466   0.0280065  -0.0264912
    2   0.0005453  -0.0279390   0.0053927   0.0279270  -0.0053733  -0.0035265
    3  -0.0000009   0.0000453   0.0000871  -0.0000449  -0.0000871   0.0000916
           37
    1  -0.0110690
    2   0.0246163
    3   0.0000116
 Max gradient component =       5.309E-02
 RMS gradient           =       1.798E-02
 Gradient time:  CPU 744.03 s  wall 484.56 s
 Geometry Optimization Parameters
   NAtoms,    NIC,     NZ,  NCons,   NDum,   NFix, NCnnct, MaxDiis
       37     332       0       0       0       0       0       0

 Cartesian Hessian Update
 Hessian Updated using BFGS Update


** GEOMETRY OPTIMIZATION IN DELOCALIZED INTERNAL COORDINATES **
   Searching for a Minimum

   Optimization Cycle:   2

                       Coordinates (Angstroms)
     ATOM                X               Y               Z
      1  C        -1.6133630336    2.7141114997    0.0079794315
      2  C        -2.2216499103    1.4692706875    0.0113150492
      3  B        -1.5103679387    0.2270777750    0.0102607698
      4  N        -0.2411532951    2.9359134574    0.0031981064
      5  B        -0.1168408288    4.3445647292    0.0013314052
      6  C        -1.4513650085    4.9805153609    0.0050811110
      7  C        -2.3561810422    3.9614454316    0.0091583843
      8  H        -1.6468527113    6.0478989978    0.0046204037
      9  H        -3.4388562949    4.0211178654    0.0127062550
     10  C        -2.1497481020   -1.1094632436    0.0137728664
     11  C        -1.1323817578   -2.0122034493    0.0113464582
     12  C         0.1142386425   -1.2629383655    0.0064579414
     13  H        -3.2172797578   -1.3049370154    0.0175044100
     14  H        -1.1899769860   -3.0950111941    0.0126621581
     15  N        -0.1065565645    0.1053702896    0.0057581562
     16  C         1.3618297015   -1.8675678630    0.0029888697
     17  B         2.6011535446   -1.1526759470   -0.0018086031
     18  N         2.7251402237    0.2554292970   -0.0036770226
     19  C         3.9354282772   -1.7888324211   -0.0055364570
     20  C         4.8407117183   -0.7687555588   -0.0096164713
     21  C         4.0978506018    0.4781766264   -0.0084576819
     22  C         4.7059067552    1.7232245190   -0.0118225229
     23  B         3.9946492172    2.9654165382   -0.0107894154
     24  N         2.5912338168    3.0866056262   -0.0062764948
     25  C         2.3698215359    4.4552592258   -0.0069854916
     26  C         3.6163188825    5.2046707433   -0.0118945897
     27  C         4.6338287191    4.3020555925   -0.0143219852
     28  H         3.6737599714    6.2874862753   -0.0132198827
     29  H         5.7013308066    4.4976834830   -0.0180640796
     30  C         1.1221594046    5.0597365719   -0.0034862036
     31  Cr        1.2424359358    1.5971249441   -0.0002491428
     32  H         1.0969897549    6.1131805774   -0.0044773330
     33  H         5.7594775757    1.7442709235   -0.0153507209
     34  H         1.3867526844   -2.9210111348    0.0039900345
     35  H        -3.2752221665    1.4483093723    0.0148436461
     36  H         5.8891433591   -0.8575978168   -0.0130036511
     37  H         4.1561742691   -2.8182924009   -0.0051677074
   Point Group: c1    Number of degrees of freedom:   105


   Energy is  -1979.964240029

 Hessian Updated using BFGS Update

 94 Hessian modes will be used to form the next step
  Hessian Eigenvalues:
     0.011413    0.011418    0.011599    0.016801    0.017877    0.019269
     0.019274    0.021755    0.021840    0.021884    0.021897    0.022256
     0.022468    0.022585    0.022613    0.026485    0.026943    0.026950
     0.026950    0.026951    0.027171    0.027171    0.027206    0.027440
     0.027672    0.027905    0.027905    0.029029    0.029430    0.029430
     0.029678    0.064481    0.103366    0.159041    0.160441    0.170582
     0.170590    0.176842    0.191242    0.227240    0.227241    0.227304
     0.228173    0.228216    0.228217    0.234997    0.236860    0.239718
     0.239718    0.247819    0.248552    0.248552    0.249896    0.250003
     0.356102    0.356232    0.356236    0.356259    0.356265    0.356268
     0.358825    0.358827    0.360161    0.362399    0.365756    0.380946
     0.380950    0.388225    0.401005    0.405079    0.406797    0.406798
     0.424741    0.424769    0.424772    0.424776    0.424776    0.428835
     0.441702    0.448268    0.448269    0.459480    0.460746    0.465008
     0.465020    0.473071    0.474245    0.475818    0.475820    0.489906
     0.506839    0.508270    0.508274    0.515370

 Minimum Search - Taking Simple RFO Step
 Searching for Lamda that Minimizes Along All modes
 Value Taken    Lamda =  -0.08013981
 Calculated Step too Large.  Step scaled by  0.736679
 Step Taken.  Stepsize is  0.300000

                             Maximum     Tolerance    Cnvgd?
         Gradient           0.135813      0.000300      NO
         Displacement       0.193590      0.001200      NO
         Energy change     -0.079573      0.000001      NO


 New Cartesian Coordinates Obtained by Inverse Iteration

 Displacement from previous Coordinates is:  0.648211
 ----------------------------------------------------------------
             Standard Nuclear Orientation (Angstroms)
    I     Atom           X                Y                Z
 ----------------------------------------------------------------
    1      C      -1.6352901628     2.7233781714     0.0080421065
    2      C      -2.2630990879     1.4944791681     0.0114251009
    3      B      -1.5470299025     0.2091825877     0.0104005918
    4      N      -0.2542339007     2.9317372468     0.0032471122
    5      B      -0.1200674577     4.3736983247     0.0013145024
    6      C      -1.4937012559     5.0148730467     0.0051884177
    7      C      -2.3768202682     3.9832851376     0.0092018632
    8      H      -1.7326379469     6.0744516832     0.0048814584
    9      H      -3.4620215241     4.0243567845     0.0127764607
   10      C      -2.1968958364    -1.1675436057     0.0139894421
   11      C      -1.1673604469    -2.0465437322     0.0114997269
   12      C       0.0914679909    -1.2902174490     0.0065617483
   13      H      -3.2569321056    -1.4057938298     0.0177398940
   14      H      -1.2026510829    -3.1319094429     0.0127456286
   15      N      -0.1171358420     0.0786573939     0.0058213107
   16      C       1.3288116266    -1.9086622548     0.0031381950
   17      B       2.6038977017    -1.1816457814    -0.0017898514
   18      N       2.7380687523     0.2598862004    -0.0037262198
   19      C       3.9771559014    -1.8228304175    -0.0056398727
   20      C       4.8606773588    -0.7898240109    -0.0096557843
   21      C       4.1193478109     0.4692955147    -0.0085187653
   22      C       4.7467228009     1.6984967272    -0.0119295849
   23      B       4.0306977218     2.9838625297    -0.0109283569
   24      N       2.6011543673     3.1138866993    -0.0063392050
   25      C       2.3919111455     4.4830548907    -0.0070880627
   26      C       3.6505630866     5.2395421682    -0.0120478409
   27      C       4.6802889564     4.3607056074    -0.0145390538
   28      H       3.6856719935     6.3249115023    -0.0133034983
   29      H       5.7402786635     4.5991743405    -0.0183007123
   30      C       1.1545510335     5.1012881300    -0.0036348984
   31      Cr      1.2421984258     1.5970828132    -0.0002488969
   32      H       1.1531446037     6.1748172135    -0.0047281786
   33      H       5.8202838439     1.6862946155    -0.0154859517
   34      H       1.3300011146    -2.9821752528     0.0042396697
   35      H      -3.3366682438     1.5067165033     0.0149830897
   36      H       5.9299888031    -0.8504961043    -0.0131387366
   37      H       4.2342013617    -2.8628431194    -0.0053828481
 ----------------------------------------------------------------
 Nuclear Repulsion Energy =  2292.5270609125 hartrees
 There are       91 alpha and       89 beta electrons
 Applying Cartesian multipole field
    Component          Value
    ---------          -----
     (2,0,0)        1.00000E-12
     (0,2,0)        2.00000E-12
     (0,0,2)       -3.00000E-11
 Nucleus-field energy     =     0.0000000153 hartrees
 Requested basis set is 6-31+G(d)
 There are 152 shells and 516 basis functions
 A cutoff of  1.0D-14 yielded   9118 shell pairs
 There are    114187 function pairs (    115717 Cartesian)
 Smallest overlap matrix eigenvalue = 6.61E-07
 Linear dependence detected in AO basis
 Number of orthogonalized atomic orbitals = 513
 Maximum deviation from orthogonality = 7.166E-11
 Guess MOs from SCF MO coefficient file
 Reading MOs from coefficient file
 Reading MOs from coefficient file
 An unrestricted hybrid HF-DFT SCF calculation will be
 performed using Pulay DIIS extrapolation
 Exchange:     0.1000 Hartree-Fock + 0.9000 TPSS
 Correlation:  1.0000 TPSS
 Using Euler-Maclaurin-Lebedev (75,302) quadrature formula
 SCF converges when DIIS error is below 1.0E-08
 Geometry optimization detected.  Setting ReadMinima to 0
 Setting SaveMinima to 0
 using 2 threads for integral computing
 -------------------------------------------------------
 OpenMP Integral computing Module
 Release: version 1.0, May 2013, Q-Chem Inc. Pittsburgh
 -------------------------------------------------------
 -------------------------------------------------------
 OpenMP BLAS3 based DFT computing Module
 Release: version 1.0, May 2013, Q-Chem Inc. Pittsburgh
 -------------------------------------------------------
 ---------------------------------------
  Cycle       Energy         DIIS Error
 ---------------------------------------
    1   -1979.8651158078      1.06E-03
    2   -1980.0068566976      1.10E-04
    3   -1980.0057262989      1.98E-04
    4   -1980.0069549977      1.20E-04
    5   -1980.0073852417      4.97E-05
    6   -1980.0074458132      2.71E-05
    7   -1980.0074683171      1.13E-05
    8   -1980.0074722850      7.28E-06
    9   -1980.0074741548      4.17E-06
   10   -1980.0074749183      2.77E-06
   11   -1980.0074755743      1.49E-06
   12   -1980.0074760264      7.29E-07
   13   -1980.0074762812      4.72E-07
   14   -1980.0074766071      5.43E-07
   15   -1980.0074770165      7.26E-07
   16   -1980.0074773735      5.59E-07
   17   -1980.0074774492      2.66E-07
   18   -1980.0074774632      1.09E-07
   19   -1980.0074774666      4.95E-08
   20   -1980.0074774681      1.60E-08
   21   -1980.0074774686      1.31E-08
   22   -1980.0074774688      6.55E-09 Convergence criterion met
 ---------------------------------------
 <S^2> = 3.1956
 SCF time:  CPU 4012.42 s  wall 2007.31 s
 SCF   energy in the final basis set = -1980.00747747
 Total energy in the final basis set = -1980.00747747

 --------------------------------------------------------------

                    Orbital Energies (a.u.)
 --------------------------------------------------------------

 Alpha MOs
 -- Occupied --
******* -24.660 -20.929 -20.927 -20.921 -14.262 -14.262 -14.246
-14.245 -10.180 -10.180 -10.176 -10.176 -10.142 -10.140 -10.134
-10.134 -10.112 -10.110 -10.110 -10.110 -10.106 -10.106 -10.106
-10.106  -6.664  -6.664  -6.659  -6.659  -2.936  -1.891  -1.886
 -1.879  -0.895  -0.889  -0.884  -0.880  -0.746  -0.743  -0.737
 -0.737  -0.731  -0.718  -0.714  -0.698  -0.608  -0.586  -0.580
 -0.562  -0.522  -0.520  -0.517  -0.512  -0.495  -0.487  -0.486
 -0.481  -0.473  -0.440  -0.439  -0.411  -0.391  -0.389  -0.388
 -0.385  -0.384  -0.377  -0.376  -0.373  -0.356  -0.351  -0.350
 -0.348  -0.338  -0.331  -0.311  -0.310  -0.301  -0.293  -0.281
 -0.275  -0.272  -0.264  -0.261  -0.249  -0.249  -0.244  -0.239
 -0.233  -0.228  -0.198
 -- Virtual --
 -0.165  -0.157  -0.127  -0.066  -0.062  -0.033  -0.025  -0.004
  0.004   0.005   0.010   0.017   0.019   0.021   0.034   0.035
  0.036   0.037   0.039   0.044   0.045   0.051   0.056   0.057
  0.059   0.061   0.063   0.070   0.071   0.078   0.078   0.079
  0.085   0.088   0.093   0.103   0.104   0.107   0.112   0.112
  0.115   0.119   0.120   0.122   0.123   0.125   0.129   0.134
  0.139   0.139   0.142   0.152   0.153   0.153   0.154   0.154
  0.160   0.162   0.167   0.171   0.173   0.174   0.176   0.176
  0.186   0.187   0.187   0.188   0.191   0.191   0.196   0.198
  0.199   0.201   0.203   0.203   0.203   0.207   0.209   0.215
  0.215   0.218   0.220   0.221   0.222   0.226   0.233   0.234
  0.236   0.245   0.253   0.254   0.254   0.257   0.259   0.261
  0.262   0.264   0.268   0.268   0.274   0.282   0.283   0.284
  0.293   0.294   0.300   0.307   0.308   0.310   0.314   0.324
  0.324   0.331   0.332   0.333   0.342   0.342   0.343   0.345
  0.355   0.369   0.375   0.376   0.377   0.377   0.390   0.392
  0.398   0.407   0.409   0.410   0.416   0.423   0.429   0.432
  0.434   0.446   0.449   0.454   0.479   0.487   0.507   0.514
  0.514   0.543   0.551   0.553   0.556   0.567   0.581   0.583
  0.624   0.634   0.637   0.651   0.664   0.669   0.693   0.703
  0.706   0.707   0.712   0.720   0.723   0.733   0.734   0.740
  0.741   0.750   0.752   0.756   0.760   0.762   0.769   0.770
  0.774   0.782   0.788   0.788   0.789   0.789   0.790   0.801
  0.806   0.814   0.821   0.822   0.822   0.827   0.830   0.850
  0.889   0.905   0.907   0.909   0.933   0.940   0.943   0.946
  0.969   0.973   0.976   0.976   0.984   0.984   1.013   1.015
  1.016   1.017   1.022   1.024   1.028   1.037   1.046   1.047
  1.059   1.062   1.083   1.091   1.094   1.096   1.109   1.114
  1.115   1.165   1.168   1.169   1.170   1.179   1.189   1.190
  1.216   1.216   1.217   1.225   1.229   1.238   1.247   1.269
  1.274   1.277   1.286   1.288   1.298   1.303   1.305   1.319
  1.322   1.331   1.333   1.349   1.357   1.357   1.362   1.367
  1.378   1.379   1.381   1.383   1.395   1.419   1.422   1.423
  1.426   1.426   1.430   1.434   1.463   1.491   1.500   1.530
  1.559   1.564   1.574   1.587   1.600   1.614   1.616   1.620
  1.631   1.653   1.662   1.674   1.733   1.741   1.753   1.759
  1.795   1.801   1.836   1.847   1.855   1.859   1.873   1.875
  1.882   1.883   1.888   1.896   1.896   1.941   1.944   1.950
  1.963   1.975   1.987   1.988   2.004   2.006   2.008   2.015
  2.020   2.022   2.025   2.029   2.034   2.042   2.047   2.054
  2.077   2.080   2.087   2.093   2.102   2.173   2.184   2.185
  2.191   2.229   2.241   2.242   2.243   2.267   2.277   2.289
  2.294   2.295   2.297   2.332   2.332   2.339   2.342   2.346
  2.352   2.356   2.369   2.414   2.442   2.442   2.446   2.447
  2.461   2.469   2.472   2.487   2.505   2.547   2.565   2.568
  2.570   2.580   2.600   2.610   2.636   2.638   2.664   2.674
  2.685   2.714   2.748   2.748   2.759   2.771   2.815   2.820
  2.825   2.844   2.848   2.869   2.872   2.892   2.924   2.928
  2.942   2.983   2.996   3.013   3.025   3.112   3.131   3.136
  3.227   3.248   3.265   3.327   3.328   3.871   3.889   3.895
  3.898   4.359   4.362   4.370   4.374   4.387   4.428   4.434
  4.481   4.522   4.527   4.534   4.541   4.551   4.593   4.599
  4.630   4.684   4.757   4.762   4.797  13.608

 Beta MOs
 -- Occupied --
******* -24.616 -20.898 -20.886 -20.883 -14.267 -14.267 -14.248
-14.248 -10.179 -10.179 -10.175 -10.175 -10.143 -10.141 -10.133
-10.133 -10.114 -10.114 -10.112 -10.111 -10.110 -10.110 -10.106
-10.106  -6.664  -6.664  -6.658  -6.658  -2.805  -1.768  -1.743
 -1.735  -0.900  -0.894  -0.886  -0.883  -0.750  -0.747  -0.741
 -0.738  -0.735  -0.724  -0.720  -0.705  -0.609  -0.587  -0.582
 -0.563  -0.523  -0.522  -0.517  -0.511  -0.495  -0.488  -0.487
 -0.482  -0.473  -0.442  -0.440  -0.412  -0.392  -0.391  -0.389
 -0.386  -0.385  -0.385  -0.376  -0.375  -0.362  -0.351  -0.349
 -0.347  -0.333  -0.325  -0.313  -0.311  -0.297  -0.294  -0.283
 -0.278  -0.276  -0.260  -0.257  -0.253  -0.246  -0.239  -0.238
 -0.200
 -- Virtual --
 -0.128  -0.092  -0.085  -0.069  -0.058  -0.051  -0.037  -0.033
 -0.001   0.003   0.005   0.012   0.016   0.017   0.026   0.027
  0.031   0.034   0.035   0.038   0.040   0.044   0.045   0.051
  0.057   0.060   0.061   0.062   0.066   0.070   0.071   0.078
  0.078   0.083   0.087   0.090   0.099   0.101   0.103   0.107
  0.112   0.112   0.115   0.117   0.119   0.122   0.123   0.124
  0.128   0.136   0.138   0.138   0.141   0.152   0.153   0.153
  0.154   0.159   0.162   0.162   0.165   0.167   0.173   0.173
  0.174   0.174   0.183   0.184   0.187   0.188   0.191   0.191
  0.195   0.197   0.198   0.200   0.203   0.203   0.206   0.207
  0.209   0.214   0.215   0.218   0.221   0.222   0.229   0.233
  0.233   0.234   0.238   0.245   0.253   0.255   0.256   0.256
  0.261   0.262   0.264   0.266   0.269   0.271   0.278   0.282
  0.284   0.285   0.294   0.295   0.307   0.308   0.308   0.309
  0.316   0.321   0.323   0.332   0.332   0.333   0.342   0.342
  0.343   0.345   0.355   0.370   0.377   0.378   0.378   0.392
  0.393   0.397   0.403   0.408   0.408   0.409   0.417   0.422
  0.429   0.432   0.434   0.446   0.450   0.451   0.478   0.489
  0.507   0.513   0.514   0.542   0.550   0.553   0.555   0.569
  0.579   0.581   0.624   0.635   0.638   0.647   0.671   0.676
  0.689   0.701   0.709   0.710   0.713   0.716   0.721   0.733
  0.734   0.736   0.742   0.750   0.751   0.752   0.757   0.762
  0.769   0.775   0.778   0.781   0.787   0.788   0.791   0.791
  0.794   0.805   0.806   0.810   0.811   0.814   0.820   0.834
  0.836   0.839   0.889   0.904   0.907   0.909   0.932   0.940
  0.943   0.946   0.969   0.971   0.981   0.984   0.984   0.986
  1.002   1.010   1.011   1.013   1.018   1.024   1.026   1.039
  1.044   1.046   1.061   1.070   1.088   1.091   1.094   1.105
  1.111   1.119   1.128   1.164   1.169   1.172   1.178   1.178
  1.186   1.200   1.215   1.215   1.216   1.225   1.231   1.238
  1.247   1.270   1.274   1.278   1.290   1.297   1.299   1.302
  1.304   1.320   1.330   1.332   1.334   1.348   1.355   1.357
  1.365   1.372   1.372   1.377   1.377   1.380   1.397   1.417
  1.419   1.422   1.430   1.431   1.432   1.439   1.462   1.492
  1.509   1.531   1.558   1.563   1.575   1.615   1.617   1.619
  1.621   1.624   1.652   1.655   1.662   1.672   1.737   1.741
  1.750   1.759   1.796   1.808   1.837   1.839   1.859   1.863
  1.864   1.866   1.888   1.889   1.889   1.892   1.893   1.943
  1.945   1.947   1.961   1.986   1.992   1.997   1.998   1.998
  2.001   2.016   2.030   2.032   2.034   2.037   2.039   2.049
  2.051   2.066   2.080   2.083   2.090   2.117   2.121   2.178
  2.185   2.194   2.228   2.240   2.241   2.244   2.249   2.281
  2.288   2.294   2.299   2.304   2.313   2.330   2.341   2.356
  2.359   2.371   2.375   2.376   2.382   2.425   2.439   2.444
  2.453   2.457   2.479   2.485   2.485   2.486   2.512   2.543
  2.558   2.561   2.564   2.582   2.599   2.601   2.634   2.639
  2.661   2.689   2.696   2.711   2.745   2.748   2.757   2.770
  2.812   2.820   2.826   2.842   2.847   2.864   2.871   2.888
  2.925   2.930   2.941   2.984   2.991   3.019   3.031   3.115
  3.131   3.138   3.224   3.244   3.262   3.327   3.327   3.871
  3.889   3.894   3.898   4.357   4.360   4.368   4.372   4.381
  4.423   4.430   4.478   4.517   4.523   4.532   4.536   4.548
  4.587   4.593   4.623   4.681   4.753   4.758   4.793  13.678
 --------------------------------------------------------------

          Ground-State Mulliken Net Atomic Charges

     Atom                 Charge (a.u.)    Spin (a.u.)
  --------------------------------------------------------
      1 C                     0.694457       0.081641
      2 C                    -0.681977      -0.236558
      3 B                     0.684182       0.045411
      4 N                    -0.519609      -0.249618
      5 B                     0.700531       0.029727
      6 C                    -0.199174       0.003870
      7 C                    -0.835030      -0.073578
      8 H                     0.198167       0.000330
      9 H                     0.201961       0.000962
     10 C                    -0.202997      -0.011951
     11 C                    -0.873129      -0.004666
     12 C                     0.717662       0.017597
     13 H                     0.194223       0.000411
     14 H                     0.198273      -0.001554
     15 N                    -0.512416      -0.184118
     16 C                    -0.691174      -0.205382
     17 B                     0.701913       0.030496
     18 N                    -0.520649      -0.250433
     19 C                    -0.203978       0.004244
     20 C                    -0.842184      -0.074344
     21 C                     0.683577       0.082776
     22 C                    -0.665836      -0.237216
     23 B                     0.684452       0.045703
     24 N                    -0.512522      -0.182578
     25 C                     0.715131       0.017126
     26 C                    -0.873660      -0.004741
     27 C                    -0.202498      -0.012194
     28 H                     0.198275      -0.001554
     29 H                     0.194219       0.000421
     30 C                    -0.695560      -0.202754
     31 Cr                    1.082439       3.512580
     32 H                     0.195680       0.014126
     33 H                     0.196243       0.015165
     34 H                     0.195795       0.014247
     35 H                     0.196056       0.015129
     36 H                     0.201684       0.000970
     37 H                     0.197470       0.000309
  --------------------------------------------------------
  Sum of atomic charges =     0.000000
  Sum of spin   charges =     2.000000

 -----------------------------------------------------------------
                    Cartesian Multipole Moments
 -----------------------------------------------------------------
    Charge (ESU x 10^10)
                 0.0000
    Dipole Moment (Debye)
         X       0.0237      Y      -0.0175      Z      -0.0000
       Tot       0.0294
    Quadrupole Moments (Debye-Ang)
        XX    -134.2827     XY      -2.9748     YY    -136.9371
        XZ      -0.0701     YZ      -0.0104     ZZ    -156.4025
    Octopole Moments (Debye-Ang^2)
       XXX    -499.5536    XXY    -222.7511    XYY    -178.8344
       YYY    -655.9861    XXZ      -0.1409    XYZ      -0.1227
       YYZ      -0.0009    XZZ    -194.1118    YZZ    -249.7962
       ZZZ       0.1166
    Hexadecapole Moments (Debye-Ang^3)
      XXXX   -6155.7812   XXXY    -905.0235   XXYY   -2294.5331
      XYYY    -854.6884   YYYY   -7075.9876   XXXZ       5.9774
      XXYZ       0.7275   XYYZ       2.0928   YYYZ       2.1446
      XXZZ   -1263.9396   XYZZ    -320.1011   YYZZ   -1428.0715
      XZZZ       9.6777   YZZZ       3.3392   ZZZZ    -188.2019
 -----------------------------------------------------------------
 Calculating analytic gradient of the SCF energy
 Gradient of SCF Energy
            1           2           3           4           5           6
    1   0.0018362   0.0015949  -0.0079470   0.0029366  -0.0016292   0.0182927
    2   0.0067312  -0.0238040  -0.0002541   0.0236693   0.0016165  -0.0103648
    3  -0.0000134   0.0000198   0.0000263  -0.0000354   0.0000037  -0.0000501
            7           8           9          10          11          12
    1  -0.0015162   0.0050810   0.0009505   0.0108413   0.0111643  -0.0061815
    2  -0.0088100   0.0004408   0.0017730   0.0207776   0.0000763  -0.0054017
    3   0.0000162  -0.0000176  -0.0000052  -0.0000577  -0.0000365   0.0000250
           13          14          15          16          17          18
    1  -0.0004408  -0.0018183  -0.0141435   0.0213006   0.0018977  -0.0032364
    2   0.0051997   0.0009391   0.0111213   0.0025797  -0.0008385  -0.0241118
    3  -0.0000031   0.0000049   0.0000352  -0.0000712  -0.0000058   0.0000374
           19          20          21          22          23          24
    1  -0.0177081   0.0129439  -0.0023601  -0.0015600   0.0078677   0.0142878
    2  -0.0008633   0.0104346  -0.0069587   0.0237996   0.0002689  -0.0114478
    3   0.0000583  -0.0000560   0.0000162  -0.0000210  -0.0000260  -0.0000346
           25          26          27          28          29          30
    1   0.0061508  -0.0111482  -0.0108382   0.0018172   0.0004421  -0.0212762
[...]
  1.105   1.113   1.114   1.164   1.166   1.171   1.184   1.187
  1.192   1.195   1.212   1.212   1.214   1.221   1.223   1.228
  1.237   1.253   1.261   1.269   1.284   1.288   1.288   1.294
  1.297   1.300   1.314   1.323   1.329   1.335   1.347   1.347
  1.356   1.370   1.374   1.378   1.381   1.382   1.386   1.404
  1.409   1.412   1.419   1.421   1.427   1.429   1.463   1.484
  1.489   1.518   1.550   1.556   1.558   1.564   1.593   1.601
  1.602   1.607   1.615   1.634   1.656   1.661   1.709   1.735
  1.746   1.751   1.766   1.784   1.807   1.831   1.833   1.837
  1.852   1.854   1.854   1.859   1.864   1.865   1.879   1.912
  1.919   1.942   1.948   1.949   1.968   1.973   1.978   1.986
  1.989   1.990   1.991   1.993   1.997   2.003   2.004   2.034
  2.037   2.043   2.052   2.059   2.065   2.074   2.087   2.142
  2.165   2.167   2.171   2.211   2.218   2.218   2.224   2.245
  2.246   2.261   2.272   2.272   2.278   2.312   2.315   2.318
  2.320   2.330   2.332   2.342   2.345   2.408   2.412   2.423
  2.425   2.431   2.436   2.451   2.457   2.468   2.483   2.526
  2.538   2.548   2.549   2.559   2.575   2.582   2.602   2.608
  2.632   2.640   2.664   2.673   2.709   2.722   2.734   2.757
  2.783   2.791   2.795   2.837   2.842   2.845   2.860   2.880
  2.886   2.898   2.919   2.935   2.965   2.981   2.995   3.092
  3.105   3.119   3.196   3.203   3.231   3.284   3.292   3.855
  3.876   3.887   3.890   4.342   4.351   4.361   4.365   4.369
  4.413   4.426   4.473   4.498   4.507   4.518   4.519   4.535
  4.565   4.575   4.598   4.665   4.747   4.755   4.780  13.447

 Beta MOs
 -- Occupied --
******* -24.617 -20.898 -20.886 -20.884 -14.273 -14.273 -14.254
-14.254 -10.180 -10.180 -10.176 -10.176 -10.143 -10.143 -10.134
-10.134 -10.121 -10.121 -10.117 -10.117 -10.116 -10.116 -10.111
-10.111  -6.682  -6.682  -6.676  -6.676  -2.805  -1.767  -1.741
 -1.735  -0.897  -0.891  -0.885  -0.882  -0.750  -0.747  -0.740
 -0.739  -0.733  -0.723  -0.717  -0.705  -0.603  -0.584  -0.578
 -0.561  -0.518  -0.518  -0.514  -0.508  -0.493  -0.489  -0.486
 -0.481  -0.468  -0.440  -0.438  -0.411  -0.391  -0.390  -0.390
 -0.387  -0.386  -0.383  -0.377  -0.375  -0.362  -0.351  -0.349
 -0.343  -0.331  -0.324  -0.312  -0.310  -0.297  -0.294  -0.285
 -0.278  -0.275  -0.262  -0.258  -0.253  -0.245  -0.241  -0.236
 -0.202
 -- Virtual --
 -0.125  -0.091  -0.084  -0.069  -0.058  -0.053  -0.039  -0.033
 -0.001   0.003   0.005   0.007   0.015   0.017   0.022   0.026
  0.028   0.033   0.033   0.037   0.039   0.042   0.044   0.049
  0.056   0.059   0.060   0.061   0.065   0.069   0.070   0.076
  0.076   0.080   0.087   0.088   0.092   0.095   0.098   0.105
  0.109   0.109   0.113   0.116   0.117   0.118   0.119   0.120
  0.127   0.133   0.135   0.136   0.142   0.151   0.151   0.152
  0.154   0.155   0.159   0.160   0.163   0.164   0.165   0.167
  0.170   0.171   0.183   0.183   0.184   0.185   0.186   0.188
  0.191   0.195   0.196   0.197   0.200   0.202   0.203   0.203
  0.205   0.211   0.213   0.213   0.215   0.219   0.225   0.230
  0.231   0.232   0.233   0.240   0.243   0.246   0.247   0.254
  0.256   0.258   0.261   0.262   0.266   0.268   0.268   0.270
  0.273   0.277   0.282   0.283   0.293   0.301   0.303   0.306
  0.311   0.316   0.318   0.318   0.322   0.328   0.334   0.334
  0.338   0.341   0.348   0.349   0.350   0.363   0.371   0.374
  0.374   0.392   0.396   0.397   0.400   0.404   0.406   0.412
  0.421   0.423   0.426   0.427   0.430   0.441   0.448   0.451
  0.470   0.483   0.492   0.504   0.510   0.524   0.534   0.539
  0.542   0.555   0.569   0.573   0.619   0.628   0.629   0.632
  0.665   0.667   0.687   0.693   0.712   0.713   0.713   0.714
  0.718   0.732   0.739   0.746   0.747   0.749   0.750   0.750
  0.751   0.760   0.771   0.771   0.774   0.778   0.778   0.784
  0.784   0.787   0.794   0.795   0.801   0.808   0.809   0.813
  0.817   0.819   0.827   0.836   0.893   0.901   0.910   0.911
  0.931   0.942   0.943   0.946   0.960   0.968   0.980   0.984
  0.988   0.991   0.995   0.997   1.003   1.006   1.009   1.013
  1.014   1.024   1.028   1.035   1.048   1.066   1.085   1.094
  1.095   1.098   1.110   1.117   1.129   1.167   1.173   1.175
  1.181   1.191   1.193   1.194   1.210   1.211   1.213   1.223
  1.223   1.227   1.238   1.254   1.262   1.270   1.288   1.289
  1.293   1.298   1.300   1.304   1.314   1.323   1.329   1.338
  1.346   1.351   1.354   1.368   1.368   1.375   1.376   1.381
  1.389   1.404   1.411   1.412   1.418   1.420   1.430   1.439
  1.462   1.490   1.492   1.522   1.549   1.557   1.558   1.595
  1.604   1.607   1.608   1.615   1.634   1.637   1.657   1.658
  1.713   1.735   1.744   1.753   1.770   1.788   1.806   1.822
  1.832   1.842   1.844   1.851   1.857   1.858   1.863   1.868
  1.870   1.915   1.921   1.941   1.945   1.961   1.971   1.978
  1.982   1.982   1.984   1.990   1.991   1.994   2.002   2.003
  2.021   2.038   2.040   2.048   2.053   2.054   2.061   2.092
  2.113   2.157   2.165   2.165   2.209   2.224   2.224   2.226
  2.230   2.244   2.264   2.277   2.282   2.282   2.303   2.315
  2.330   2.336   2.343   2.348   2.349   2.350   2.357   2.414
  2.428   2.433   2.437   2.445   2.449   2.455   2.464   2.466
  2.489   2.519   2.534   2.542   2.545   2.552   2.569   2.580
  2.602   2.608   2.629   2.656   2.672   2.675   2.707   2.722
  2.732   2.756   2.780   2.792   2.796   2.834   2.835   2.843
  2.859   2.877   2.892   2.901   2.917   2.935   2.960   2.981
  3.000   3.094   3.104   3.122   3.194   3.200   3.228   3.282
  3.291   3.855   3.876   3.886   3.890   4.338   4.347   4.358
  4.362   4.366   4.409   4.423   4.470   4.493   4.503   4.514
  4.514   4.531   4.559   4.569   4.591   4.662   4.744   4.752
  4.776  13.520
 --------------------------------------------------------------

          Ground-State Mulliken Net Atomic Charges

     Atom                 Charge (a.u.)    Spin (a.u.)
  --------------------------------------------------------
      1 C                     1.085432       0.128904
      2 C                    -1.085188      -0.281524
      3 B                     0.704650       0.049253
      4 N                    -0.485028      -0.267855
      5 B                     0.733572       0.023408
      6 C                    -0.151580       0.012947
      7 C                    -0.906268      -0.084391
      8 H                     0.197861       0.000148
      9 H                     0.200531       0.000988
     10 C                    -0.174070      -0.010201
     11 C                    -0.930183      -0.007358
     12 C                     1.099820       0.037720
     13 H                     0.193892       0.000321
     14 H                     0.197156      -0.001392
     15 N                    -0.479825      -0.195988
     16 C                    -1.095643      -0.225054
     17 B                     0.733582       0.023431
     18 N                    -0.485047      -0.267885
     19 C                    -0.151580       0.012973
     20 C                    -0.906265      -0.084428
     21 C                     1.085568       0.128910
     22 C                    -1.085300      -0.281513
     23 B                     0.704640       0.049264
     24 N                    -0.479839      -0.195857
     25 C                     1.099872       0.037634
     26 C                    -0.930184      -0.007360
     27 C                    -0.174099      -0.010224
     28 H                     0.197158      -0.001392
     29 H                     0.193892       0.000322
     30 C                    -1.095722      -0.224790
     31 Cr                    1.006393       3.579532
     32 H                     0.195898       0.014228
     33 H                     0.195807       0.015929
     34 H                     0.195898       0.014239
     35 H                     0.195808       0.015928
     36 H                     0.200528       0.000989
     37 H                     0.197862       0.000146
  --------------------------------------------------------
  Sum of atomic charges =     0.000000
  Sum of spin   charges =     2.000000

 -----------------------------------------------------------------
                    Cartesian Multipole Moments
 -----------------------------------------------------------------
    Charge (ESU x 10^10)
                -0.0000
    Dipole Moment (Debye)
         X      -0.0002      Y      -0.0000      Z       0.0000
       Tot       0.0002
    Quadrupole Moments (Debye-Ang)
        XX    -134.8138     XY      -2.9976     YY    -137.5797
        XZ      -0.0711     YZ      -0.0107     ZZ    -157.2970
    Octopole Moments (Debye-Ang^2)
       XXX    -502.2628    XXY    -222.6556    XYY    -180.4277
       YYY    -658.9021    XXZ      -0.1429    XYZ      -0.1269
       YYZ       0.0002    XZZ    -195.3411    YZZ    -251.1095
       ZZZ       0.1179
    Hexadecapole Moments (Debye-Ang^3)
      XXXX   -6297.5777   XXXY    -926.7039   XXYY   -2329.2862
      XYYY    -879.0849   YYYY   -7231.8501   XXXZ       6.1624
      XXYZ       0.7394   XYYZ       2.0880   YYYZ       2.2522
      XXZZ   -1294.5698   XYZZ    -329.8537   YYZZ   -1462.9134
      XZZZ       9.9886   YZZZ       3.5177   ZZZZ    -190.3963
 -----------------------------------------------------------------
Archival summary:
1\1\h07\OPT\ProcedureUnspecified\6-31+G*\r1416412(3)\kjchen\FriJun2215:29:442018FriJun2215:29:442018\0\\#,OPT,ProcedureUnspecified,6-31+G*,\\0,3\Cr\N,1,2.0101\C,2,1.39688,1,130.65\C,3,1.37824,2,126.409,1,0.00098936,0\H,4,1.09034,3,115.273,2,179.999,0\C,3,1.47059,2,112.268,1,180,0\H,6,1.08791,3,120.804,2,-179.999,0\C,6,1.3536,3,110.583,2,0,0\H,8,1.08641,6,124.32,3,-180,0\B,2,1.49015,1,125.637,3,-180,0\C,10,1.50392,2,125.141,1,0.00121252,0\H,11,1.08993,10,120.697,2,179.999,0\C,11,1.3833,10,123.406,2,0,0\N,13,1.37603,11,125.776,10,-0.00227572,0\B,14,1.45944,13,104.21,11,-179.998,0\C,13,1.48229,11,121.486,10,179.999,0\H,16,1.08773,13,121.135,11,-0.00150311,0\C,16,1.3493,13,109.802,11,179.998,0\H,18,1.08669,16,124.487,13,-179.999,0\B,4,1.51327,3,123.637,2,-0,0\N,20,1.45948,4,123.553,3,0,0\C,21,1.376,20,104.208,4,180,0\C,22,1.38332,21,125.777,20,180,0\H,23,1.08993,22,115.896,21,-180,0\C,22,1.48231,21,112.74,20,0,0\H,25,1.08773,22,121.135,21,-180,0\C,25,1.34929,22,109.801,21,-0,0\H,27,1.08669,25,124.488,22,179.999,0\B,23,1.50392,22,123.405,21,0.00144839,0\N,29,1.49012,23,125.139,22,-0.00112385,0\C,30,1.39691,29,103.711,23,180,0\C,31,1.37823,30,126.41,29,179.998,0\H,32,1.09034,31,115.273,30,-179.998,0\C,31,1.47061,30,112.268,29,0,0\H,34,1.08791,31,120.801,30,179.999,0\C,34,1.3536,31,110.582,30,-0,0\H,36,1.0864,34,124.327,31,180,0\\\@

 Total job time:  41174.37s(wall), 80564.68s(cpu)
 Fri Jun 22 15:29:44 2018

        *************************************************************
        *                                                           *
        *  Thank you very much for using Q-Chem.  Have a nice day.  *
        *                                                           *
        *************************************************************



User input: 2 of 2

h07.ulysses.mit.edu 127.0.1
Q-Chem Developer Version! Running on 127.0.1.*
                  Welcome to Q-Chem
     A Quantum Leap Into The Future Of Chemistry


 Q-Chem 5.0, Q-Chem, Inc., Pleasanton, CA (2017)

 Yihan Shao,  Zhengting Gan,  E. Epifanovsky,  A. T. B. Gilbert,  M. Wormit,
 J. Kussmann,  A. W. Lange,  A. Behn,  Jia Deng,  Xintian Feng,  D. Ghosh,
 M. Goldey,  P. R. Horn,  L. D. Jacobson,  I. Kaliman,  T. Kus,  A. Landau,
 Jie Liu,  E. I. Proynov,  R. M. Richard,  R. P. Steele,  E. J. Sundstrom,
 H. L. Woodcock III,  P. M. Zimmerman,  D. Zuev,  B. Albrecht,  E. Alguire,
 S. A. Baeppler,  Z. Benda,  Y. A. Bernard,  E. J. Berquist,  K. B. Bravaya,
 D. Casanova,  Chun-Min Chang,  Yunqing Chen,  A. Chien,  K. D. Closser,
 M. P. Coons,  S. Dasgupta,  M. Diedenhofen,  Hainam Do,  R. G. Edgar,
 Po-Tung Fang,  S. Fatehi,  Qingguo Feng,  Qinghui Ge,  A. Ghysels,
 J. Gomes,  J. Gonthier,  A. Gunina,  M. W. D. Hanson-Heine,
 P. H. P. Harbach,  A. W. Hauser,  J. E. Herr,  E. G. Hohenstein,
 Z. C. Holden,  Kerwin Hui,  T.-C. Jagau,  Hyunjun Ji,  B. Kaduk,
 K. Khistyaev,  Jaehoon Kim,  P. Klunzinger,  K. Koh,  D. Kosenkov,
 T. Kowalczyk,  C. M. Krauter,  A. Kunitsa,  Ka Un Lao,  A. Laurent,
 K. V. Lawler,  Joonho Lee,  D. Lefrancois,  S. Lehtola,  D. S. Levine,
 Yi-Pei Li,  You-Sheng Lin,  Fenglai Liu,  E. Livshits,  A. Luenser,
 P. Manohar,  E. Mansoor,  S. F. Manzer,  Shan-Ping Mao,  Yuezhi Mao,
 N. Mardirossian,  A. V. Marenich,  L. A. Martinez-Martinez,  S. A. Maurer,
 N. J. Mayhall,  S. C. McKenzie,  J.-M. Mewes,  A. F. Morrison,  K. Nanda,
 T. S. Nguyen-Beck,  R. Olivares-Amaya,  J. A. Parkhill,  T. M. Perrine,
 F. Plasser,  S. Prager,  A. Prociuk,  D. R. Rehn,  F. Rob,  M. Schneider,
 N. Sergueev,  S. M. Sharada,  S. Sharma,  D. W. Small,  T. Stauch,
 T. Stein,  Yu-Chuan Su,  A. J. W. Thom,  T. Tsuchimochi,  L. Vogt,
 O. Vydrov,  M. A. Watson,  J. Wenzel,  M. de Wergifosse,  T. A. Wesolowski,
 A. White,  J. Witte,  A. Yamada,  Jun Yang,  K. Yao,  S. Yeganeh,
 S. R. Yost,  Zhi-Qiang You,  A. Zech,  Igor Ying Zhang,  Xing Zhang,
 Yan Zhao,  Ying Zhu,  B. R. Brooks,  G. K. L. Chan,  C. J. Cramer,
 M. S. Gordon,  W. J. Hehre,  A. Klamt,  M. W. Schmidt,  C. D. Sherrill,
 D. G. Truhlar,  A. Aspuru-Guzik,  R. Baer,  A. T. Bell,  N. A. Besley,
 Jeng-Da Chai,  A. Dreuw,  B. D. Dunietz,  T. R. Furlani,  Chao-Ping Hsu,
 Yousung Jung,  Jing Kong,  D. S. Lambrecht,  WanZhen Liang,  C. Ochsenfeld,
 V. A. Rassolov,  L. V. Slipchenko,  J. E. Subotnik,  T. Van Voorhis,
 J. M. Herbert,  A. I. Krylov,  P. M. W. Gill,  M. Head-Gordon

 Contributors to earlier versions of Q-Chem not listed above:
 R. D. Adamson,  B. Austin,  J. Baker,  G. J. O. Beran,  K. Brandhorst,
 S. T. Brown,  E. F. C. Byrd,  A. K. Chakraborty,  C.-L. Cheng,
 Siu Hung Chien,  D. M. Chipman,  D. L. Crittenden,  H. Dachsel,
 R. A. DiStasio Jr.,  R. J. Doerksen,  A. D. Dutoi,  L. Fusti-Molnar,
 W. A. Goddard III,  A. Golubeva-Zadorozhnaya,  S. R. Gwaltney,  G. Hawkins,
 A. Heyden,  S. Hirata,  G. Kedziora,  F. J. Keil,  C. Kelley,  Jihan Kim,
 R. A. King,  R. Z. Khaliullin,  P. P. Korambath,  W. Kurlancheek,
 A. M. Lee,  M. S. Lee,  S. V. Levchenko,  Ching Yeh Lin,  D. Liotard,
 R. C. Lochan,  I. Lotan,  P. E. Maslen,  N. Nair,  D. P. O'Neill,
 D. Neuhauser,  E. Neuscamman,  C. M. Oana,  R. Olson,  B. Peters,
 R. Peverati,  P. A. Pieniazek,  Y. M. Rhee,  J. Ritchie,  M. A. Rohrdanz,
 E. Rosta,  N. J. Russ,  H. F. Schaefer III,  N. E. Schultz,  N. Shenvi,
 A. C. Simmonett,  A. Sodt,  D. Stuck,  K. S. Thanthiriwatte,  V. Vanovschi,
 Tao Wang,  A. Warshel,  C. F. Williams,  Q. Wu,  X. Xu,  W. Zhang

 Please cite Q-Chem as follows:
 Y. Shao et al., Mol. Phys. 113, 184-215 (2015)
 DOI: 10.1080/00268976.2014.952696

 Q-Chem 5.0.1 for Intel X86 EM64T Linux

 Parts of Q-Chem use Armadillo 5.200.1 (Boston Tea Smuggler).
 http://arma.sourceforge.net/

 Q-Chem begins on Fri Jun 22 15:29:44 2018

Host:
0

     Scratch files written to /scratch/kjchen/qchem7136//
Processing $rem in /opt/qchem.20170918/config/preferences.
xc_grid     000075000302
max_scf_cycles  200
geom_opt_max_cycles 200
symmetry    false
sym_ignore  true
cc_symmetry false
The previous job contains 0 fragments, simply inherited here
Symmetry turned off for PCM/SM12/SMD calculation
Warning: disabling incdft.
Checking the input file for inconsistencies...  ...done.

--------------------------------------------------------------
User input:
--------------------------------------------------------------

$rem
MEM_STATIC                    256
MAX_SCF_CYCLES                500
BASIS                         6-31+g*
SOLVENT_METHOD                pcm
PRINT_ORBITALS                true
THRESH                        14
MEM_TOTAL                     4096
GUI=2
MOLDEN_FORMAT                 true
UNRESTRICTED                  true
METHOD                        tpssh
JOBTYPE                       sp
CHELPG                        true
$end

$molecule
read
$end

$pcm
theory cpcm
method swig
solver inversion
heavypoints 194
hpoints 194
radii bondi
vdwscale 1.2
$end

$solvent
dielectric 78.39
$end

$van_der_waals
1
28  1.63
26  1.96
$end


--------------------------------------------------------------
 ----------------------------------------------------------------
             Standard Nuclear Orientation (Angstroms)
    I     Atom           X                Y                Z
 ----------------------------------------------------------------
    1      C      -1.6485189716     2.7346158281     0.0080830621
    2      C      -2.3061335329     1.5233907379     0.0115151617
    3      B      -1.5988678462     0.1855760657     0.0105850588
    4      N      -0.2649401771     2.9268419289     0.0033337420
    5      B      -0.1142932243     4.4093559254     0.0012991576
    6      C      -1.5315451074     5.0542787005     0.0053095202
    7      C      -2.3877682936     4.0058969012     0.0092100395
    8      H      -1.8390302336     6.0962688817     0.0052556046
    9      H      -3.4756121904     4.0177791733     0.0127984125
   10      C      -2.2593201778    -1.2410990893     0.0142661481
   11      C      -1.2098168421    -2.0891098069     0.0117037333
   12      C       0.0572826556    -1.3199010752     0.0067191555
   13      H      -3.3008579546    -1.5510711353     0.0180077732
   14      H      -1.2074340418    -3.1768327743     0.0128448659
   15      N      -0.1465791334     0.0409117202     0.0059547462
   16      C       1.2869907071    -1.9534436527     0.0033223927
   17      B       2.5980125469    -1.2165820906    -0.0017602232
   18      N       2.7486060728     0.2659063728    -0.0038142452
   19      C       4.0152624236    -1.8615042970    -0.0057385868
   20      C       4.8714835284    -0.8131289739    -0.0096528418
   21      C       4.1322146134     0.4581571106    -0.0085597065
   22      C       4.7898269792     1.6693714532    -0.0120245693
   23      B       4.0825671789     3.0072146246    -0.0111235415
   24      N       2.6303189124     3.1518943569    -0.0064769929
   25      C       2.4264368526     4.5127388257    -0.0072423250
   26      C       3.6935353906     5.2819136898    -0.0122587244
   27      C       4.7430331947     4.4338862593    -0.0148341192
   28      H       3.6911766386     6.3696363357    -0.0134075400
   29      H       5.7845704563     4.7438604696    -0.0185964569
   30      C       1.1967209598     5.1462252606    -0.0038103667
   31      Cr      1.2419286363     1.5964872573    -0.0002499442
   32      H       1.2225567347     6.2358442272    -0.0050444519
   33      H       5.8784346028     1.6080137640    -0.0155620289
   34      H       1.2610972628    -3.0430609369     0.0045586469
   35      H      -3.3947401491     1.5847571982     0.0150544320
   36      H       5.9593199921    -0.8249444875    -0.0132328769
   37      H       4.3226215363    -2.9035147489    -0.0056621119
 ----------------------------------------------------------------
 Nuclear Repulsion Energy =  2266.0069605850 hartrees
 There are       91 alpha and       89 beta electrons
 Requested basis set is 6-31+G(d)
 There are 152 shells and 516 basis functions

 Total QAlloc Memory Limit   4096 MB
 Mega-Array Size       251 MB
 MEM_STATIC part       256 MB
No default van der Waals radius is available for Z = 24

 Q-Chem fatal error occurred in module /home/akohn/tests/qchem.20170918/libscrf/pcm/radius.C, line 130:

 Try specifying the radius in a $van_der_waals input section